
                                 *****************
                                 * O   R   C   A *
                                 *****************

                                            #,                                       
                                            ###                                      
                                            ####                                     
                                            #####                                    
                                            ######                                   
                                           ########,                                 
                                     ,,################,,,,,                         
                               ,,#################################,,                 
                          ,,##########################################,,             
                       ,#########################################, ''#####,          
                    ,#############################################,,   '####,        
                  ,##################################################,,,,####,       
                ,###########''''           ''''###############################       
              ,#####''   ,,,,##########,,,,          '''####'''          '####       
            ,##' ,,,,###########################,,,                        '##       
           ' ,,###''''                  '''############,,,                           
         ,,##''                                '''############,,,,        ,,,,,,###''
      ,#''                                            '''#######################'''  
     '                                                          ''''####''''         
             ,#######,   #######,   ,#######,      ##                                
            ,#'     '#,  ##    ##  ,#'     '#,    #''#        ######   ,####,        
            ##       ##  ##   ,#'  ##            #'  '#       #        #'  '#        
            ##       ##  #######   ##           ,######,      #####,   #    #        
            '#,     ,#'  ##    ##  '#,     ,#' ,#      #,         ##   #,  ,#        
             '#######'   ##     ##  '#######'  #'      '#     #####' # '####'        



                  #######################################################
                  #                        -***-                        #
                  #          Department of theory and spectroscopy      #
                  #    Directorship and core code : Frank Neese         #
                  #        Max Planck Institute fuer Kohlenforschung    #
                  #                Kaiser Wilhelm Platz 1               #
                  #                 D-45470 Muelheim/Ruhr               #
                  #                      Germany                        #
                  #                                                     #
                  #                  All rights reserved                #
                  #                        -***-                        #
                  #######################################################


                         Program Version 5.0.3 -  RELEASE  -


 With contributions from (in alphabetic order):
   Daniel Aravena         : Magnetic Suceptibility
   Michael Atanasov       : Ab Initio Ligand Field Theory (pilot matlab implementation)
   Alexander A. Auer      : GIAO ZORA, VPT2 properties, NMR spectrum
   Ute Becker             : Parallelization
   Giovanni Bistoni       : ED, misc. LED, open-shell LED, HFLD
   Martin Brehm           : Molecular dynamics
   Dmytro Bykov           : SCF Hessian
   Vijay G. Chilkuri      : MRCI spin determinant printing, contributions to CSF-ICE
   Dipayan Datta          : RHF DLPNO-CCSD density
   Achintya Kumar Dutta   : EOM-CC, STEOM-CC
   Dmitry Ganyushin       : Spin-Orbit,Spin-Spin,Magnetic field MRCI
   Miquel Garcia          : C-PCM and meta-GGA Hessian, CC/C-PCM, Gaussian charge scheme
   Yang Guo               : DLPNO-NEVPT2, F12-NEVPT2, CIM, IAO-localization
   Andreas Hansen         : Spin unrestricted coupled pair/coupled cluster methods
   Benjamin Helmich-Paris : MC-RPA, TRAH-SCF, COSX integrals
   Lee Huntington         : MR-EOM, pCC
   Robert Izsak           : Overlap fitted RIJCOSX, COSX-SCS-MP3, EOM
   Marcus Kettner         : VPT2
   Christian Kollmar      : KDIIS, OOCD, Brueckner-CCSD(T), CCSD density, CASPT2, CASPT2-K
   Simone Kossmann        : Meta GGA functionals, TD-DFT gradient, OOMP2, MP2 Hessian
   Martin Krupicka        : Initial AUTO-CI
   Lucas Lang             : DCDCAS
   Marvin Lechner         : AUTO-CI (C++ implementation), FIC-MRCC
   Dagmar Lenk            : GEPOL surface, SMD
   Dimitrios Liakos       : Extrapolation schemes; Compound Job, initial MDCI parallelization
   Dimitrios Manganas     : Further ROCIS development; embedding schemes
   Dimitrios Pantazis     : SARC Basis sets
   Anastasios Papadopoulos: AUTO-CI, single reference methods and gradients
   Taras Petrenko         : DFT Hessian,TD-DFT gradient, ASA, ECA, R-Raman, ABS, FL, XAS/XES, NRVS
   Peter Pinski           : DLPNO-MP2, DLPNO-MP2 Gradient
   Christoph Reimann      : Effective Core Potentials
   Marius Retegan         : Local ZFS, SOC
   Christoph Riplinger    : Optimizer, TS searches, QM/MM, DLPNO-CCSD(T), (RO)-DLPNO pert. Triples
   Tobias Risthaus        : Range-separated hybrids, TD-DFT gradient, RPA, STAB
   Michael Roemelt        : Original ROCIS implementation
   Masaaki Saitow         : Open-shell DLPNO-CCSD energy and density
   Barbara Sandhoefer     : DKH picture change effects
   Avijit Sen             : IP-ROCIS
   Kantharuban Sivalingam : CASSCF convergence, NEVPT2, FIC-MRCI
   Bernardo de Souza      : ESD, SOC TD-DFT
   Georgi Stoychev        : AutoAux, RI-MP2 NMR, DLPNO-MP2 response
   Willem Van den Heuvel  : Paramagnetic NMR
   Boris Wezisla          : Elementary symmetry handling
   Frank Wennmohs         : Technical directorship


 We gratefully acknowledge several colleagues who have allowed us to
 interface, adapt or use parts of their codes:
   Stefan Grimme, W. Hujo, H. Kruse, P. Pracht,  : VdW corrections, initial TS optimization,
                  C. Bannwarth, S. Ehlert          DFT functionals, gCP, sTDA/sTD-DF
   Ed Valeev, F. Pavosevic, A. Kumar             : LibInt (2-el integral package), F12 methods
   Garnet Chan, S. Sharma, J. Yang, R. Olivares  : DMRG
   Ulf Ekstrom                                   : XCFun DFT Library
   Mihaly Kallay                                 : mrcc  (arbitrary order and MRCC methods)
   Jiri Pittner, Ondrej Demel                    : Mk-CCSD
   Frank Weinhold                                : gennbo (NPA and NBO analysis)
   Christopher J. Cramer and Donald G. Truhlar   : smd solvation model
   Lars Goerigk                                  : TD-DFT with DH, B97 family of functionals
   V. Asgeirsson, H. Jonsson                     : NEB implementation
   FAccTs GmbH                                   : IRC, NEB, NEB-TS, DLPNO-Multilevel, CI-OPT
                                                   MM, QMMM, 2- and 3-layer-ONIOM, Crystal-QMMM,
                                                   LR-CPCM, SF, NACMEs, symmetry and pop. for TD-DFT,
                                                   nearIR, NL-DFT gradient (VV10), updates on ESD,
                                                   ML-optimized integration grids
   S Lehtola, MJT Oliveira, MAL Marques          : LibXC Library
   Liviu Ungur et al                             : ANISO software


 Your calculation uses the libint2 library for the computation of 2-el integrals
 For citations please refer to: http://libint.valeyev.net

 Your ORCA version has been built with support for libXC version: 5.1.0
 For citations please refer to: https://tddft.org/programs/libxc/

 This ORCA versions uses:
   CBLAS   interface :  Fast vector & matrix operations
   LAPACKE interface :  Fast linear algebra routines
   SCALAPACK package :  Parallel linear algebra routines
   Shared memory     :  Shared parallel matrices
   BLAS/LAPACK       :  OpenBLAS 0.3.15  USE64BITINT DYNAMIC_ARCH NO_AFFINITY Zen SINGLE_THREADED
        Core in use  :  Zen
   Copyright (c) 2011-2014, The OpenBLAS Project




***************************************
The coordinates will be read from file: AJALIH.xyz
***************************************


Your calculation utilizes the atom-pairwise dispersion correction
with the Becke-Johnson damping scheme (D3BJ)
Cite in your paper:
S.Grimme, S.Ehrlich, L.Goerigk, J Comput Chem, (2011), 32, 1456–1465 
S.Grimme, J.Antony, S.Ehrlich and H.Krieg, J.Chem.Phys., 132, (2010), 154104 
   

================================================================================

----- Orbital basis set information -----
Your calculation utilizes the basis: def2-TZVP
   F. Weigend and R. Ahlrichs, Phys. Chem. Chem. Phys. 7, 3297 (2005).

----- AuxJ basis set information -----
Your calculation utilizes the auxiliary basis: def2/J
   F. Weigend, Phys. Chem. Chem. Phys. 8, 1057 (2006).

================================================================================
                                        WARNINGS
                       Please study these warnings very carefully!
================================================================================


WARNING: your system is open-shell and RHF/RKS was chosen
  ===> : WILL SWITCH to UHF/UKS


INFO   : the flag for use of the SHARK integral package has been found!

================================================================================
                                       INPUT FILE
================================================================================
NAME = AJALIH_5_SPE.inp
|  1> ! TPSSh D3BJ RIJCOSX def2-TZVP def2/J Slowconv Hirshfeld
|  2> %PAL NPROCS 64 END
|  3> %scf
|  4> MaxIter 1500
|  5> SOSCFStart 0.00033
|  6> end
|  7> 
|  8> *xyzfile 0 5 AJALIH.xyz
|  9> 
| 10>                          ****END OF INPUT****
================================================================================

                       ****************************
                       * Single Point Calculation *
                       ****************************

---------------------------------
CARTESIAN COORDINATES (ANGSTROEM)
---------------------------------
  Fe     0.140050   -0.960280    0.248600
  Br     0.047600   -2.717700   -1.350520
  Br     0.510980   -1.669250    2.489940
  P     -1.670450    0.646300    0.041540
  P      1.491370    1.004070   -0.306910
  N     -0.939080    2.010590   -0.662280
  N      0.405530    2.319970   -0.341540
  H      0.454330    2.856590    0.532750
  C     -2.552040    1.051180    1.622530
  H     -2.909530    0.060970    1.963460
  C     -1.544120    1.566080    2.634970
  H     -2.015750    1.689080    3.625140
  H     -1.158220    2.559270    2.336840
  H     -0.693420    0.874230    2.749060
  C     -3.727340    2.015250    1.487990
  H     -4.188470    2.188530    2.476120
  H     -4.519000    1.639880    0.819330
  H     -3.396640    2.996550    1.106530
  C     -3.006940    0.251470   -1.157040
  H     -3.732050    1.085180   -1.138590
  C     -2.445340    0.093840   -2.583960
  H     -3.266430   -0.159430   -3.276170
  H     -1.706600   -0.723760   -2.612260
  H     -1.958530    1.011060   -2.946400
  C     -3.712050   -1.031920   -0.701230
  H     -4.504410   -1.300550   -1.420330
  H     -4.184840   -0.928530    0.289440
  H     -2.994920   -1.869410   -0.658240
  C     -1.638400    3.167640   -1.223000
  H     -1.098470    3.521870   -2.117760
  H     -1.702790    4.007810   -0.502050
  H     -2.660910    2.886080   -1.511560
  C      2.683230    1.671700    0.941880
  H      2.010240    1.869590    1.799060
  C      3.700790    0.625350    1.408450
  H      4.244370    1.007590    2.289290
  H      4.448360    0.404400    0.630770
  H      3.200720   -0.313730    1.697850
  C      3.361160    2.981450    0.510650
  H      3.920040    3.411330    1.359700
  H      2.641300    3.737390    0.156150
  H      4.085320    2.800490   -0.301400
  C      2.310220    1.036310   -1.960460
  H      2.771560    2.032840   -2.076460
  C      3.355560   -0.074190   -2.025370
  H      3.751740   -0.156930   -3.052160
  H      2.901400   -1.046850   -1.766540
  H      4.211700    0.097570   -1.355270
  C      1.262930    0.808060   -3.035060
  H      1.736520    0.821470   -4.032210
  H      0.477480    1.580870   -3.022290
  H      0.779390   -0.173710   -2.899810

----------------------------
CARTESIAN COORDINATES (A.U.)
----------------------------
  NO LB      ZA    FRAG     MASS         X           Y           Z
   0 Fe   26.0000    0    55.850    0.264656   -1.814666    0.469786
   1 Br   35.0000    0    79.900    0.089951   -5.135709   -2.552113
   2 Br   35.0000    0    79.900    0.965612   -3.154425    4.705305
   3 P    15.0000    0    30.974   -3.156693    1.221330    0.078499
   4 P    15.0000    0    30.974    2.818281    1.897417   -0.579976
   5 N     7.0000    0    14.007   -1.774604    3.799464   -1.251528
   6 N     7.0000    0    14.007    0.766341    4.384108   -0.645417
   7 H     1.0000    0     1.008    0.858559    5.398173    1.006752
   8 C     6.0000    0    12.011   -4.822657    1.986442    3.066137
   9 H     1.0000    0     1.008   -5.498215    0.115217    3.710402
  10 C     6.0000    0    12.011   -2.917964    2.959462    4.979372
  11 H     1.0000    0     1.008   -3.809215    3.191899    6.850522
  12 H     1.0000    0     1.008   -2.188719    4.836319    4.415988
  13 H     1.0000    0     1.008   -1.310374    1.652055    5.194971
  14 C     6.0000    0    12.011   -7.043652    3.808271    2.811894
  15 H     1.0000    0     1.008   -7.915061    4.135722    4.679189
  16 H     1.0000    0     1.008   -8.539672    3.098924    1.548309
  17 H     1.0000    0     1.008   -6.418719    5.662659    2.091039
  18 C     6.0000    0    12.011   -5.682293    0.475209   -2.186489
  19 H     1.0000    0     1.008   -7.052552    2.050693   -2.151623
  20 C     6.0000    0    12.011   -4.621023    0.177332   -4.882977
  21 H     1.0000    0     1.008   -6.172658   -0.301279   -6.191064
  22 H     1.0000    0     1.008   -3.225007   -1.367708   -4.936456
  23 H     1.0000    0     1.008   -3.701085    1.910627   -5.567889
  24 C     6.0000    0    12.011   -7.014758   -1.950046   -1.325133
  25 H     1.0000    0     1.008   -8.512101   -2.457683   -2.684035
  26 H     1.0000    0     1.008   -7.908202   -1.754667    0.546962
  27 H     1.0000    0     1.008   -5.659579   -3.532673   -1.243893
  28 C     6.0000    0    12.011   -3.096127    5.985972   -2.311135
  29 H     1.0000    0     1.008   -2.075807    6.655370   -4.001986
  30 H     1.0000    0     1.008   -3.217807    7.573663   -0.948737
  31 H     1.0000    0     1.008   -5.028391    5.453901   -2.856434
  32 C     6.0000    0    12.011    5.070570    3.159055    1.779895
  33 H     1.0000    0     1.008    3.798803    3.533013    3.399731
  34 C     6.0000    0    12.011    6.993480    1.181740    2.661585
  35 H     1.0000    0     1.008    8.020697    1.904069    4.326131
  36 H     1.0000    0     1.008    8.406182    0.764205    1.191983
  37 H     1.0000    0     1.008    6.048484   -0.592864    3.208472
  38 C     6.0000    0    12.011    6.351672    5.634124    0.964989
  39 H     1.0000    0     1.008    7.407802    6.446479    2.569461
  40 H     1.0000    0     1.008    4.991334    7.062644    0.295081
  41 H     1.0000    0     1.008    7.720136    5.292159   -0.569563
  42 C     6.0000    0    12.011    4.365683    1.958342   -3.704732
  43 H     1.0000    0     1.008    5.237489    3.841511   -3.923941
  44 C     6.0000    0    12.011    6.341089   -0.140199   -3.827395
  45 H     1.0000    0     1.008    7.089761   -0.296555   -5.767747
  46 H     1.0000    0     1.008    5.482851   -1.978260   -3.338277
  47 H     1.0000    0     1.008    7.958960    0.184381   -2.561089
  48 C     6.0000    0    12.011    2.386592    1.527012   -5.735432
  49 H     1.0000    0     1.008    3.281547    1.552353   -7.619773
  50 H     1.0000    0     1.008    0.902306    2.987411   -5.711300
  51 H     1.0000    0     1.008    1.472834   -0.328264   -5.479847

--------------------------------
INTERNAL COORDINATES (ANGSTROEM)
--------------------------------
 Fe     0   0   0     0.000000000000     0.00000000     0.00000000
 Br     1   0   0     2.377868127820     0.00000000     0.00000000
 Br     1   2   0     2.379880778821   114.78671518     0.00000000
 P      1   2   3     2.429379219060   113.73241454   227.43649322
 P      1   2   3     2.448127452769   117.50889906   134.09761416
 N      4   1   2     1.700456372095   104.20072547   254.80517459
 N      6   4   1     1.416533156725   119.32582981   326.20902948
 H      7   6   4     1.026998280670   110.60862809   275.98544973
 C      4   1   2     1.854901108577   115.20786365   131.11380519
 H      9   4   1     1.106593063913   102.75693112   302.28293480
 C      9   4   1     1.518571529432   109.07526128    56.94288838
 H     11   9   4     1.103630592997   110.62881567   187.46335421
 H     11   9   4     1.106447776897   110.86761789    69.03968503
 H     11   9   4     1.102435231930   111.61568505   307.58554133
 C      9   4   1     1.526060964215   115.39049244   182.44906399
 H     15   9   4     1.104114003262   109.99246977   179.65845572
 H     15   9   4     1.102149893662   113.04912265    59.81770045
 H     15   9   4     1.103550593131   111.18851004   298.19121898
 C      4   1   2     1.838121395719   117.09040304     7.06109635
 H     19   4   1     1.105077951413   107.70717401   180.95961988
 C     19   4   1     1.541538991820   111.14071316   300.74294536
 H     21  19   4     1.103398914763   109.45512999   179.02676329
 H     21  19   4     1.102273758011   110.10684567    60.20466790
 H     21  19   4     1.099836014186   112.39641776   299.41284111
 C     19   4   1     1.533633841665   108.67766216    63.07327899
 H     25  19   4     1.103223121812   109.89219086   181.29187936
 H     25  19   4     1.102563796385   112.68886343    61.44568840
 H     25  19   4     1.103409750319   110.36038306   300.16942984
 C      6   4   1     1.463632495984   125.96673378   167.98659449
 H     29   6   4     1.103448573972   109.30724659   217.07244104
 H     29   6   4     1.108963752113   112.18542266    97.05244357
 H     29   6   4     1.099122198529   110.03307283   336.66212055
 C      5   1   2     1.850874533997   119.45743698   227.85333263
 H     33   5   1     1.107625182361   101.26411745   302.88784403
 C     33   5   1     1.532306836440   112.75237523    56.71672755
 H     35  33   5     1.103388299557   109.49154750   191.53799234
 H     35  33   5     1.101120333933   111.88978905    72.59914305
 H     35  33   5     1.102584967837   111.12059100   310.75132005
 C     33   5   1     1.536552459339   113.71726379   185.60819795
 H     39  33   5     1.103643770109   109.84837892   170.39527882
 H     39  33   5     1.102412787117   112.74608398    49.74316583
 H     39  33   5     1.102986595431   110.88188337   288.85931339
 C      5   1   2     1.845476183157   117.53232220     2.21342811
 H     43   5   1     1.104247543126   107.17339044   173.68773775
 C     43   5   1     1.526485923191   109.22278735   294.57874500
 H     45  43   5     1.103676675526   109.87183163   172.11858178
 H     45  43   5     1.104229029731   110.43761535    53.77613715
 H     45  43   5     1.100686698021   113.15649920   292.13428076
 C     43   5   1     1.517787721192   109.00092712    54.12108206
 H     49  43   5     1.103981629693   109.97810277   180.15486347
 H     49  43   5     1.101966456613   112.21921728    60.01048741
 H     49  43   5     1.102712939527   110.46416585   299.32452656

---------------------------
INTERNAL COORDINATES (A.U.)
---------------------------
 Fe     0   0   0     0.000000000000     0.00000000     0.00000000
 Br     1   0   0     4.493519544159     0.00000000     0.00000000
 Br     1   2   0     4.497322903354   114.78671518     0.00000000
 P      1   2   3     4.590861399463   113.73241454   227.43649322
 P      1   2   3     4.626290426667   117.50889906   134.09761416
 N      4   1   2     3.213396845942   104.20072547   254.80517459
 N      6   4   1     2.676859725828   119.32582981   326.20902948
 H      7   6   4     1.940745490475   110.60862809   275.98544973
 C      4   1   2     3.505255100717   115.20786365   131.11380519
 H      9   4   1     2.091157832492   102.75693112   302.28293480
 C      9   4   1     2.869684305396   109.07526128    56.94288838
 H     11   9   4     2.085559573782   110.62881567   187.46335421
 H     11   9   4     2.090883279821   110.86761789    69.03968503
 H     11   9   4     2.083300668733   111.61568505   307.58554133
 C      9   4   1     2.883837286034   115.39049244   182.44906399
 H     15   9   4     2.086473086793   109.99246977   179.65845572
 H     15   9   4     2.082761457552   113.04912265    59.81770045
 H     15   9   4     2.085408395944   111.18851004   298.19121898
 C      4   1   2     3.473546038810   117.09040304     7.06109635
 H     19   4   1     2.088294684806   107.70717401   180.95961988
 C     19   4   1     2.913086519300   111.14071316   300.74294536
 H     21  19   4     2.085121765368   109.45512999   179.02676329
 H     21  19   4     2.082995527249   110.10684567    60.20466790
 H     21  19   4     2.078388859035   112.39641776   299.41284111
 C     19   4   1     2.898147950460   108.67766216    63.07327899
 H     25  19   4     2.084789564834   109.89219086   181.29187936
 H     25  19   4     2.083543620345   112.68886343    61.44568840
 H     25  19   4     2.085142241602   110.36038306   300.16942984
 C      6   4   1     2.765864578117   125.96673378   167.98659449
 H     29   6   4     2.085215607672   109.30724659   217.07244104
 H     29   6   4     2.095637783939   112.18542266    97.05244357
 H     29   6   4     2.077039942934   110.03307283   336.66212055
 C      5   1   2     3.497645977504   119.45743698   227.85333263
 H     33   5   1     2.093108253697   101.26411745   302.88784403
 C     33   5   1     2.895640274006   112.75237523    56.71672755
 H     35  33   5     2.085101705536   109.49154750   191.53799234
 H     35  33   5     2.080815871625   111.88978905    72.59914305
 H     35  33   5     2.083583628590   111.12059100   310.75132005
 C     33   5   1     2.903663338553   113.71726379   185.60819795
 H     39  33   5     2.085584474914   109.84837892   170.39527882
 H     39  33   5     2.083258254185   112.74608398    49.74316583
 H     39  33   5     2.084342594750   110.88188337   288.85931339
 C      5   1   2     3.487444572841   117.53232220     2.21342811
 H     43   5   1     2.086725440564   107.17339044   173.68773775
 C     43   5   1     2.884640342117   109.22278735   294.57874500
 H     45  43   5     2.085646657141   109.87183163   172.11858178
 H     45  43   5     2.086690455317   110.43761535    53.77613715
 H     45  43   5     2.079996418509   113.15649920   292.13428076
 C     43   5   1     2.868203122481   109.00092712    54.12108206
 H     49  43   5     2.086222937000   109.97810277   180.15486347
 H     49  43   5     2.082414811766   112.21921728    60.01048741
 H     49  43   5     2.083825460037   110.46416585   299.32452656

---------------------
BASIS SET INFORMATION
---------------------
There are 6 groups of distinct atoms

 Group   1 Type Fe  : 17s11p7d1f contracted to 6s4p4d1f pattern {842111/6311/4111/1}
 Group   2 Type Br  : 17s13p8d1f contracted to 6s5p4d1f pattern {842111/64111/5111/1}
 Group   3 Type P   : 14s9p3d1f contracted to 5s5p2d1f pattern {73211/51111/21/1}
 Group   4 Type N   : 11s6p2d1f contracted to 5s3p2d1f pattern {62111/411/11/1}
 Group   5 Type H   : 5s1p contracted to 3s1p pattern {311/1}
 Group   6 Type C   : 11s6p2d1f contracted to 5s3p2d1f pattern {62111/411/11/1}

Atom   0Fe   basis set group =>   1
Atom   1Br   basis set group =>   2
Atom   2Br   basis set group =>   2
Atom   3P    basis set group =>   3
Atom   4P    basis set group =>   3
Atom   5N    basis set group =>   4
Atom   6N    basis set group =>   4
Atom   7H    basis set group =>   5
Atom   8C    basis set group =>   6
Atom   9H    basis set group =>   5
Atom  10C    basis set group =>   6
Atom  11H    basis set group =>   5
Atom  12H    basis set group =>   5
Atom  13H    basis set group =>   5
Atom  14C    basis set group =>   6
Atom  15H    basis set group =>   5
Atom  16H    basis set group =>   5
Atom  17H    basis set group =>   5
Atom  18C    basis set group =>   6
Atom  19H    basis set group =>   5
Atom  20C    basis set group =>   6
Atom  21H    basis set group =>   5
Atom  22H    basis set group =>   5
Atom  23H    basis set group =>   5
Atom  24C    basis set group =>   6
Atom  25H    basis set group =>   5
Atom  26H    basis set group =>   5
Atom  27H    basis set group =>   5
Atom  28C    basis set group =>   6
Atom  29H    basis set group =>   5
Atom  30H    basis set group =>   5
Atom  31H    basis set group =>   5
Atom  32C    basis set group =>   6
Atom  33H    basis set group =>   5
Atom  34C    basis set group =>   6
Atom  35H    basis set group =>   5
Atom  36H    basis set group =>   5
Atom  37H    basis set group =>   5
Atom  38C    basis set group =>   6
Atom  39H    basis set group =>   5
Atom  40H    basis set group =>   5
Atom  41H    basis set group =>   5
Atom  42C    basis set group =>   6
Atom  43H    basis set group =>   5
Atom  44C    basis set group =>   6
Atom  45H    basis set group =>   5
Atom  46H    basis set group =>   5
Atom  47H    basis set group =>   5
Atom  48C    basis set group =>   6
Atom  49H    basis set group =>   5
Atom  50H    basis set group =>   5
Atom  51H    basis set group =>   5
---------------------------------
AUXILIARY/J BASIS SET INFORMATION
---------------------------------
There are 6 groups of distinct atoms

 Group   1 Type Fe  : 19s5p5d3f3g contracted to 8s5p5d2f3g pattern {121111111/11111/11111/21/111}
 Group   2 Type Br  : 19s5p5d3f1g contracted to 8s4p3d2f1g pattern {121111111/2111/311/21/1}
 Group   3 Type P   : 14s5p5d2f1g contracted to 8s4p3d1f1g pattern {71111111/2111/311/2/1}
 Group   4 Type N   : 12s5p4d2f1g contracted to 6s4p3d1f1g pattern {711111/2111/211/2/1}
 Group   5 Type H   : 5s2p1d contracted to 3s1p1d pattern {311/2/1}
 Group   6 Type C   : 12s5p4d2f1g contracted to 6s4p3d1f1g pattern {711111/2111/211/2/1}

Atom   0Fe   basis set group =>   1
Atom   1Br   basis set group =>   2
Atom   2Br   basis set group =>   2
Atom   3P    basis set group =>   3
Atom   4P    basis set group =>   3
Atom   5N    basis set group =>   4
Atom   6N    basis set group =>   4
Atom   7H    basis set group =>   5
Atom   8C    basis set group =>   6
Atom   9H    basis set group =>   5
Atom  10C    basis set group =>   6
Atom  11H    basis set group =>   5
Atom  12H    basis set group =>   5
Atom  13H    basis set group =>   5
Atom  14C    basis set group =>   6
Atom  15H    basis set group =>   5
Atom  16H    basis set group =>   5
Atom  17H    basis set group =>   5
Atom  18C    basis set group =>   6
Atom  19H    basis set group =>   5
Atom  20C    basis set group =>   6
Atom  21H    basis set group =>   5
Atom  22H    basis set group =>   5
Atom  23H    basis set group =>   5
Atom  24C    basis set group =>   6
Atom  25H    basis set group =>   5
Atom  26H    basis set group =>   5
Atom  27H    basis set group =>   5
Atom  28C    basis set group =>   6
Atom  29H    basis set group =>   5
Atom  30H    basis set group =>   5
Atom  31H    basis set group =>   5
Atom  32C    basis set group =>   6
Atom  33H    basis set group =>   5
Atom  34C    basis set group =>   6
Atom  35H    basis set group =>   5
Atom  36H    basis set group =>   5
Atom  37H    basis set group =>   5
Atom  38C    basis set group =>   6
Atom  39H    basis set group =>   5
Atom  40H    basis set group =>   5
Atom  41H    basis set group =>   5
Atom  42C    basis set group =>   6
Atom  43H    basis set group =>   5
Atom  44C    basis set group =>   6
Atom  45H    basis set group =>   5
Atom  46H    basis set group =>   5
Atom  47H    basis set group =>   5
Atom  48C    basis set group =>   6
Atom  49H    basis set group =>   5
Atom  50H    basis set group =>   5
Atom  51H    basis set group =>   5


           ************************************************************
           *        Program running with 64 parallel MPI-processes    *
           *              working on a common directory               *
           ************************************************************
------------------------------------------------------------------------------
                           ORCA GTO INTEGRAL CALCULATION
                           -- RI-GTO INTEGRALS CHOSEN --
------------------------------------------------------------------------------
------------------------------------------------------------------------------
                   ___                                                        
                  /   \      - P O W E R E D   B Y -                         
                 /     \                                                     
                 |  |  |   _    _      __       _____    __    __             
                 |  |  |  | |  | |    /  \     |  _  \  |  |  /  |          
                  \  \/   | |  | |   /    \    | | | |  |  | /  /          
                 / \  \   | |__| |  /  /\  \   | |_| |  |  |/  /          
                |  |  |   |  __  | /  /__\  \  |    /   |      \           
                |  |  |   | |  | | |   __   |  |    \   |  |\   \          
                \     /   | |  | | |  |  |  |  | |\  \  |  | \   \       
                 \___/    |_|  |_| |__|  |__|  |_| \__\ |__|  \__/        
                                                                              
                      - O R C A' S   B I G   F R I E N D -                    
                                      &                                       
                       - I N T E G R A L  F E E D E R -                       
                                                                              
 v1 FN, 2020, v2 2021                                                         
------------------------------------------------------------------------------


Reading SHARK input file AJALIH_5_SPE.SHARKINP.tmp ... ok
----------------------
SHARK INTEGRAL PACKAGE
----------------------

Number of atoms                             ...     52
Number of basis functions                   ...    872
Number of shells                            ...    366
Maximum angular momentum                    ...      3
Integral batch strategy                     ... SHARK/LIBINT Hybrid
RI-J (if used) integral strategy            ... SPLIT-RIJ (Revised 2003 algorithm where possible)
Printlevel                                  ...      1
Contraction scheme used                     ... SEGMENTED contraction
Coulomb Range Separation                    ... NOT USED
Exchange Range Separation                   ... NOT USED
Finite Nucleus Model                        ... NOT USED
Auxiliary Coulomb fitting basis             ... AVAILABLE
   # of basis functions in Aux-J            ...   1394
   # of shells in Aux-J                     ...    478
   Maximum angular momentum in Aux-J        ...      4
Auxiliary J/K fitting basis                 ... NOT available
Auxiliary Correlation fitting basis         ... NOT available
Auxiliary 'external' fitting basis          ... NOT available
Integral threshold                          ...     1.000000e-10
Primitive cut-off                           ...     1.000000e-11
Primitive pair pre-selection threshold      ...     1.000000e-11

Calculating pre-screening integrals         ... done (  0.0 sec) Dimension = 366
Organizing shell pair data                  ... done (  1.3 sec)
Shell pair information
Total number of shell pairs                 ...     67161
Shell pairs after pre-screening             ...     47334
Total number of primitive shell pairs       ...    218819
Primitive shell pairs kept                  ...     96922
          la=0 lb=0:  13899 shell pairs
          la=1 lb=0:  14178 shell pairs
          la=1 lb=1:   3701 shell pairs
          la=2 lb=0:   6494 shell pairs
          la=2 lb=1:   3374 shell pairs
          la=2 lb=2:    821 shell pairs
          la=3 lb=0:   2646 shell pairs
          la=3 lb=1:   1410 shell pairs
          la=3 lb=2:    662 shell pairs
          la=3 lb=3:    149 shell pairs

Calculating one electron integrals          ... done (  0.1 sec)
Calculating RI/J V-Matrix + Cholesky decomp.... done (  0.2 sec)
Calculating Nuclear repulsion               ... done (  0.0 sec) ENN=   4054.696254121859 Eh

SHARK setup successfully completed in   2.1 seconds

Maximum memory used throughout the entire GTOINT-calculation: 69.9 MB


           ************************************************************
           *        Program running with 64 parallel MPI-processes    *
           *              working on a common directory               *
           ************************************************************
-------------------------------------------------------------------------------
                                 ORCA SCF
-------------------------------------------------------------------------------

------------
SCF SETTINGS
------------
Hamiltonian:
 Density Functional     Method          .... DFT(GTOs)
 Exchange Functional    Exchange        .... TPSS
 Correlation Functional Correlation     .... TPSS
 LDA part of GGA corr.  LDAOpt          .... PW91-LDA
 Gradients option       PostSCFGGA      .... off
 Hybrid DFT is turned on
   Fraction HF Exchange ScalHFX         ....  0.100000
   Scaling of DF-GGA-X  ScalDFX         ....  0.900000
   Scaling of DF-GGA-C  ScalDFC         ....  1.000000
   Scaling of DF-LDA-C  ScalLDAC        ....  1.000000
   Perturbative correction              ....  0.000000
   Density functional embedding theory  .... OFF
   NL short-range parameter             ....  5.200000
 RI-approximation to the Coulomb term is turned on
   Number of AuxJ basis functions       .... 1394
   RIJ-COSX (HFX calculated with COS-X)).... on


General Settings:
 Integral files         IntName         .... AJALIH_5_SPE
 Hartree-Fock type      HFTyp           .... UHF
 Total Charge           Charge          ....    0
 Multiplicity           Mult            ....    5
 Number of Electrons    NEL             ....  250
 Basis Dimension        Dim             ....  872
 Nuclear Repulsion      ENuc            ....   4054.6962541219 Eh

Convergence Acceleration:
 DIIS                   CNVDIIS         .... on
   Start iteration      DIISMaxIt       ....     0
   Startup error        DIISStart       ....  0.200000
   # of expansion vecs  DIISMaxEq       ....     5
   Bias factor          DIISBfac        ....   1.050
   Max. coefficient     DIISMaxC        ....  10.000
 Trust-Rad. Augm. Hess. CNVTRAH         .... auto
   Auto Start mean grad. ratio tolernc. ....  1.125000
   Auto Start start iteration           ....    20
   Auto Start num. interpolation iter.  ....    10
   Max. Number of Micro iterations      ....    16
   Max. Number of Macro iterations      .... Maxiter - #DIIS iter
   Number of Davidson start vectors     ....     2
   Converg. threshold I  (grad. norm)   ....   5.000e-05
   Converg. threshold II (energy diff.) ....   1.000e-06
   Grad. Scal. Fac. for Micro threshold ....   0.100
   Minimum threshold for Micro iter.    ....   0.010
   NR start threshold (gradient norm)   ....   0.001
   Initial trust radius                 ....   0.400
   Minimum AH scaling param. (alpha)    ....   1.000
   Maximum AH scaling param. (alpha)    .... 1000.000
   Orbital update algorithm             .... Taylor
   White noise on init. David. guess    .... on
   Maximum white noise                  ....   0.010
   Quad. conv. algorithm                .... NR
 SOSCF                  CNVSOSCF        .... off
 Level Shifting         CNVShift        .... on
   Level shift para.    LevelShift      ....    0.2500
   Turn off err/grad.   ShiftErr        ....    0.0000
 Zerner damping         CNVZerner       .... off
 Static damping         CNVDamp         .... on
   Fraction old density DampFac         ....    0.8500
   Max. Damping (<1)    DampMax         ....    0.9800
   Min. Damping (>=0)   DampMin         ....    0.0000
   Turn off err/grad.   DampErr         ....    0.0300
 Fernandez-Rico         CNVRico         .... off

SCF Procedure:
 Maximum # iterations   MaxIter         ....  1500
 SCF integral mode      SCFMode         .... Direct
   Integral package                     .... SHARK and LIBINT hybrid scheme
 Reset frequency        DirectResetFreq ....    20
 Integral Threshold     Thresh          ....  1.000e-10 Eh
 Primitive CutOff       TCut            ....  1.000e-11 Eh

Convergence Tolerance:
 Convergence Check Mode ConvCheckMode   .... Total+1el-Energy
 Convergence forced     ConvForced      .... 0
 Energy Change          TolE            ....  1.000e-06 Eh
 1-El. energy change                    ....  1.000e-03 Eh
 DIIS Error             TolErr          ....  1.000e-06


Diagonalization of the overlap matrix:
Smallest eigenvalue                        ... 1.187e-04
Time for diagonalization                   ...    0.143 sec
Threshold for overlap eigenvalues          ... 1.000e-08
Number of eigenvalues below threshold      ... 0
Time for construction of square roots      ...    0.139 sec
Total time needed                          ...    0.287 sec

Time for model grid setup =    0.238 sec

------------------------------
INITIAL GUESS: MODEL POTENTIAL
------------------------------
Loading Hartree-Fock densities                     ... done
Calculating cut-offs                               ... done
Initializing the effective Hamiltonian             ... done
Setting up the integral package (SHARK)            ... done
Starting the Coulomb interaction                   ... done (   0.2 sec)
Reading the grid                                   ... done
Mapping shells                                     ... done
Starting the XC term evaluation                    ... done (   0.0 sec)
  promolecular density results
     # of electrons  =    249.987588367
     EX              =   -366.904033437
     EC              =     -9.882246770
     EX+EC           =   -376.786280207
Transforming the Hamiltonian                       ... done (   0.1 sec)
Diagonalizing the Hamiltonian                      ... done (   0.1 sec)
Back transforming the eigenvectors                 ... done (   0.0 sec)
Now organizing SCF variables                       ... done
                      ------------------
                      INITIAL GUESS DONE (   0.8 sec)
                      ------------------
-------------------
DFT GRID GENERATION
-------------------

General Integration Accuracy     IntAcc      ... 4.388
Radial Grid Type                 RadialGrid  ... OptM3 with GC (2021)
Angular Grid (max. ang.)         AngularGrid ... 4 (Lebedev-302)
Angular grid pruning method      GridPruning ... 4 (adaptive)
Weight generation scheme         WeightScheme... Becke
Basis function cutoff            BFCut       ... 1.0000e-10
Integration weight cutoff        WCut        ... 1.0000e-14
Angular grids for H and He will be reduced by one unit
Partially contracted basis set               ... off
Rotationally invariant grid construction     ... off

Total number of grid points                  ...   237023
Total number of batches                      ...     3727
Average number of points per batch           ...       63
Average number of grid points per atom       ...     4558
Time for grid setup =    1.140 sec

--------------------
COSX GRID GENERATION
--------------------

GRIDX 1
-------
General Integration Accuracy     IntAcc      ... 3.816
Radial Grid Type                 RadialGrid  ... OptM3 with GC (2021)
Angular Grid (max. ang.)         AngularGrid ... 1 (Lebedev-50)
Angular grid pruning method      GridPruning ... 4 (adaptive)
Weight generation scheme         WeightScheme... Becke
Basis function cutoff            BFCut       ... 1.0000e-10
Integration weight cutoff        WCut        ... 1.0000e-14
Angular grids for H and He will be reduced by one unit
Partially contracted basis set               ... on
Rotationally invariant grid construction     ... off

Total number of grid points                  ...    29474
Total number of batches                      ...      487
Average number of points per batch           ...       60
Average number of grid points per atom       ...      567
UseSFitting                                  ... on

GRIDX 2
-------
General Integration Accuracy     IntAcc      ... 4.020
Radial Grid Type                 RadialGrid  ... OptM3 with GC (2021)
Angular Grid (max. ang.)         AngularGrid ... 2 (Lebedev-110)
Angular grid pruning method      GridPruning ... 4 (adaptive)
Weight generation scheme         WeightScheme... Becke
Basis function cutoff            BFCut       ... 1.0000e-10
Integration weight cutoff        WCut        ... 1.0000e-14
Angular grids for H and He will be reduced by one unit
Partially contracted basis set               ... on
Rotationally invariant grid construction     ... off

Total number of grid points                  ...    60556
Total number of batches                      ...      971
Average number of points per batch           ...       62
Average number of grid points per atom       ...     1165
UseSFitting                                  ... on

GRIDX 3
-------
General Integration Accuracy     IntAcc      ... 4.338
Radial Grid Type                 RadialGrid  ... OptM3 with GC (2021)
Angular Grid (max. ang.)         AngularGrid ... 3 (Lebedev-194)
Angular grid pruning method      GridPruning ... 4 (adaptive)
Weight generation scheme         WeightScheme... Becke
Basis function cutoff            BFCut       ... 1.0000e-10
Integration weight cutoff        WCut        ... 1.0000e-14
Angular grids for H and He will be reduced by one unit
Partially contracted basis set               ... on
Rotationally invariant grid construction     ... off

Total number of grid points                  ...   132098
Total number of batches                      ...     2090
Average number of points per batch           ...       63
Average number of grid points per atom       ...     2540
UseSFitting                                  ... on

Time for X-Grid setup             =    1.276 sec

--------------
SCF ITERATIONS
--------------
ITER       Energy         Delta-E        Max-DP      RMS-DP      [F,P]     Damp
               ***  Starting incremental Fock matrix formation  ***
  0  -7718.5652013167   0.000000000000 0.02406219  0.00015838  0.0913297 0.8500
  1  -7718.7537397451  -0.188538428401 0.02020405  0.00015585  0.0647958 0.8500
                               ***Turning on DIIS***
  2  -7718.8637380911  -0.109998345984 0.01304625  0.00011654  0.0457493 0.8500
  3  -7718.9321869834  -0.068448892275 0.00812446  0.00007291  0.0543336 0.8500
  4  -7718.9850672443  -0.052880260962 0.00554954  0.00005173  0.0365569 0.8500
  5  -7719.0259409652  -0.040873720895 0.03791379  0.00028164  0.0280224 0.0000
  6  -7719.2401157969  -0.214174831638 0.01529020  0.00005311  0.0120665 0.0000
  7  -7719.2410980947  -0.000982297839 0.00443888  0.00002609  0.0145723 0.0000
  8  -7719.2421734895  -0.001075394822 0.00637749  0.00001919  0.0060287 0.0000
  9  -7719.2424646398  -0.000291150297 0.00335002  0.00001113  0.0010634 0.0000
 10  -7719.2425697761  -0.000105136259 0.00113999  0.00000606  0.0006381 0.0000
               *** Restarting incremental Fock matrix formation ***
                                   *** Resetting DIIS ***
 11  -7719.2426085404  -0.000038764321 0.00059356  0.00000360  0.0004361 0.0000
 12  -7719.2426209873  -0.000012446871 0.00059169  0.00000237  0.0007841 0.0000
 13  -7719.2426295861  -0.000008598804 0.00047990  0.00000178  0.0003571 0.0000
 14  -7719.2426339042  -0.000004318120 0.00051279  0.00000174  0.0004240 0.0000
 15  -7719.2426379942  -0.000004089995 0.00047078  0.00000129  0.0002957 0.0000
 16  -7719.2426407845  -0.000002790280 0.00043037  0.00000108  0.0002615 0.0000
 17  -7719.2426421973  -0.000001412795 0.00045539  0.00000113  0.0002300 0.0000
 18  -7719.2426440459  -0.000001848627 0.00039360  0.00000096  0.0002024 0.0000
 19  -7719.2426453767  -0.000001330855 0.00040629  0.00000101  0.0001735 0.0000
 20  -7719.2426460758  -0.000000699079 0.00025091  0.00000063  0.0001475 0.0000
 21  -7719.2426468403  -0.000000764503 0.00042540  0.00000109  0.0001226 0.0000
                 **** Energy Check signals convergence ****

               *****************************************************
               *                     SUCCESS                       *
               *           SCF CONVERGED AFTER  22 CYCLES          *
               *****************************************************

Old exchange energy                            =    -37.096589473 Eh
New exchange energy                            =    -37.096503369 Eh
Exchange energy change after final integration =      0.000086104 Eh
Total energy after final integration           =  -7719.242561165 Eh
Final COS-X integration done in                =     4.774 sec

----------------
TOTAL SCF ENERGY
----------------

Total Energy       :        -7719.24256116 Eh         -210051.26889 eV

Components:
Nuclear Repulsion  :         4054.69625412 Eh          110333.89434 eV
Electronic Energy  :       -11773.93881529 Eh         -320385.16323 eV
One Electron Energy:       -18788.83887919 Eh         -511270.29838 eV
Two Electron Energy:         7014.90006390 Eh          190885.13515 eV
Max COSX asymmetry :            0.00000557 Eh               0.00015 eV

Virial components:
Potential Energy   :       -15424.12364839 Eh         -419711.74221 eV
Kinetic Energy     :         7704.88108723 Eh          209660.47332 eV
Virial Ratio       :            2.00186394


DFT components:
N(Alpha)           :      127.000133372245 electrons
N(Beta)            :      123.000132953228 electrons
N(Total)           :      250.000266325473 electrons
E(X)               :     -334.530291261352 Eh       
E(C)               :       -9.848139111591 Eh       
E(XC)              :     -344.378430372944 Eh       
DFET-embed. en.    :        0.000000000000 Eh       

---------------
SCF CONVERGENCE
---------------

  Last Energy change         ...   -4.2840e-07  Tolerance :   1.0000e-06
  Last MAX-Density change    ...    0.0000e+00  Tolerance :   1.0000e-05
  Last RMS-Density change    ...    0.0000e+00  Tolerance :   1.0000e-06
  Last DIIS Error            ...    1.6257e-04  Tolerance :   1.0000e-06

             **** THE GBW FILE WAS UPDATED (AJALIH_5_SPE.gbw) ****
             **** DENSITY AJALIH_5_SPE.scfp WAS UPDATED ****
             **** ENERGY FILE WAS UPDATED (AJALIH_5_SPE.en.tmp) ****
----------------------
UHF SPIN CONTAMINATION
----------------------

Warning: in a DFT calculation there is little theoretical justification to 
         calculate <S**2> as in Hartree-Fock theory. We will do it anyways
         but you should keep in mind that the values have only limited relevance

Expectation value of <S**2>     :     6.021928
Ideal value S*(S+1) for S=2.0   :     6.000000
Deviation                       :     0.021928

             **** THE GBW FILE WAS UPDATED (AJALIH_5_SPE.gbw) ****
             **** DENSITY AJALIH_5_SPE.scfp WAS UPDATED ****
----------------
ORBITAL ENERGIES
----------------
                 SPIN UP ORBITALS
  NO   OCC          E(Eh)            E(eV) 
   0   1.0000    -482.493316    -13129.3106 
   1   1.0000    -482.493208    -13129.3077 
   2   1.0000    -255.860724     -6962.3243 
   3   1.0000     -76.959615     -2094.1776 
   4   1.0000     -76.957632     -2094.1236 
   5   1.0000     -62.206891     -1692.7355 
   6   1.0000     -62.206833     -1692.7340 
   7   1.0000     -55.991450     -1523.6048 
   8   1.0000     -55.991401     -1523.6035 
   9   1.0000     -55.990833     -1523.5880 
  10   1.0000     -55.990807     -1523.5873 
  11   1.0000     -55.990789     -1523.5868 
  12   1.0000     -55.990655     -1523.5832 
  13   1.0000     -29.908759      -813.8587 
  14   1.0000     -25.755240      -700.8357 
  15   1.0000     -25.734477      -700.2707 
  16   1.0000     -25.729548      -700.1366 
  17   1.0000     -14.301180      -389.1549 
  18   1.0000     -14.296308      -389.0223 
  19   1.0000     -10.165791      -276.6252 
  20   1.0000     -10.148957      -276.1672 
  21   1.0000     -10.140970      -275.9498 
  22   1.0000     -10.138231      -275.8753 
  23   1.0000     -10.135427      -275.7990 
  24   1.0000     -10.129816      -275.6463 
  25   1.0000     -10.126919      -275.5675 
  26   1.0000     -10.119285      -275.3597 
  27   1.0000     -10.117260      -275.3046 
  28   1.0000     -10.117146      -275.3015 
  29   1.0000     -10.114918      -275.2409 
  30   1.0000     -10.113652      -275.2065 
  31   1.0000     -10.112597      -275.1778 
  32   1.0000      -8.553721      -232.7586 
  33   1.0000      -8.553618      -232.7558 
  34   1.0000      -6.513128      -177.2312 
  35   1.0000      -6.510569      -177.1616 
  36   1.0000      -6.369317      -173.3179 
  37   1.0000      -6.369262      -173.3164 
  38   1.0000      -6.367371      -173.2650 
  39   1.0000      -6.367185      -173.2599 
  40   1.0000      -6.367167      -173.2594 
  41   1.0000      -6.367142      -173.2587 
  42   1.0000      -4.663185      -126.8917 
  43   1.0000      -4.661224      -126.8384 
  44   1.0000      -4.660567      -126.8205 
  45   1.0000      -4.659445      -126.7900 
  46   1.0000      -4.658683      -126.7692 
  47   1.0000      -4.657138      -126.7272 
  48   1.0000      -3.486967       -94.8852 
  49   1.0000      -2.494126       -67.8686 
  50   1.0000      -2.494059       -67.8668 
  51   1.0000      -2.493574       -67.8536 
  52   1.0000      -2.493441       -67.8500 
  53   1.0000      -2.493380       -67.8483 
  54   1.0000      -2.493368       -67.8480 
  55   1.0000      -2.491708       -67.8028 
  56   1.0000      -2.491648       -67.8012 
  57   1.0000      -2.491572       -67.7991 
  58   1.0000      -2.491515       -67.7976 
  59   1.0000      -2.294169       -62.4275 
  60   1.0000      -2.251162       -61.2572 
  61   1.0000      -2.238802       -60.9209 
  62   1.0000      -0.981592       -26.7105 
  63   1.0000      -0.830052       -22.5869 
  64   1.0000      -0.802953       -21.8495 
  65   1.0000      -0.784281       -21.3414 
  66   1.0000      -0.780453       -21.2372 
  67   1.0000      -0.776427       -21.1276 
  68   1.0000      -0.690985       -18.8027 
  69   1.0000      -0.686084       -18.6693 
  70   1.0000      -0.683639       -18.6028 
  71   1.0000      -0.682656       -18.5760 
  72   1.0000      -0.680234       -18.5101 
  73   1.0000      -0.675544       -18.3825 
  74   1.0000      -0.672708       -18.3053 
  75   1.0000      -0.648173       -17.6377 
  76   1.0000      -0.612450       -16.6656 
  77   1.0000      -0.585460       -15.9312 
  78   1.0000      -0.580840       -15.8054 
  79   1.0000      -0.551055       -14.9950 
  80   1.0000      -0.538528       -14.6541 
  81   1.0000      -0.498061       -13.5529 
  82   1.0000      -0.479782       -13.0555 
  83   1.0000      -0.475115       -12.9285 
  84   1.0000      -0.465521       -12.6675 
  85   1.0000      -0.455893       -12.4055 
  86   1.0000      -0.453849       -12.3499 
  87   1.0000      -0.446961       -12.1624 
  88   1.0000      -0.433392       -11.7932 
  89   1.0000      -0.428074       -11.6485 
  90   1.0000      -0.425090       -11.5673 
  91   1.0000      -0.413398       -11.2491 
  92   1.0000      -0.407955       -11.1010 
  93   1.0000      -0.407065       -11.0768 
  94   1.0000      -0.397434       -10.8147 
  95   1.0000      -0.392177       -10.6717 
  96   1.0000      -0.386459       -10.5161 
  97   1.0000      -0.385958       -10.5025 
  98   1.0000      -0.380185       -10.3454 
  99   1.0000      -0.376628       -10.2486 
 100   1.0000      -0.372693       -10.1415 
 101   1.0000      -0.367397        -9.9974 
 102   1.0000      -0.358983        -9.7684 
 103   1.0000      -0.349970        -9.5232 
 104   1.0000      -0.347976        -9.4689 
 105   1.0000      -0.347580        -9.4581 
 106   1.0000      -0.343495        -9.3470 
 107   1.0000      -0.340821        -9.2742 
 108   1.0000      -0.337746        -9.1905 
 109   1.0000      -0.337430        -9.1819 
 110   1.0000      -0.335708        -9.1351 
 111   1.0000      -0.334183        -9.0936 
 112   1.0000      -0.327960        -8.9242 
 113   1.0000      -0.323305        -8.7976 
 114   1.0000      -0.317785        -8.6474 
 115   1.0000      -0.314919        -8.5694 
 116   1.0000      -0.302616        -8.2346 
 117   1.0000      -0.285851        -7.7784 
 118   1.0000      -0.278089        -7.5672 
 119   1.0000      -0.255032        -6.9398 
 120   1.0000      -0.252318        -6.8659 
 121   1.0000      -0.251045        -6.8313 
 122   1.0000      -0.230404        -6.2696 
 123   1.0000      -0.228958        -6.2303 
 124   1.0000      -0.219544        -5.9741 
 125   1.0000      -0.209452        -5.6995 
 126   1.0000      -0.193629        -5.2689 
 127   0.0000      -0.014142        -0.3848 
 128   0.0000      -0.009754        -0.2654 
 129   0.0000       0.002396         0.0652 
 130   0.0000       0.014895         0.4053 
 131   0.0000       0.023651         0.6436 
 132   0.0000       0.034174         0.9299 
 133   0.0000       0.035424         0.9639 
 134   0.0000       0.039517         1.0753 
 135   0.0000       0.048714         1.3256 
 136   0.0000       0.052901         1.4395 
 137   0.0000       0.056760         1.5445 
 138   0.0000       0.064022         1.7421 
 139   0.0000       0.065275         1.7762 
 140   0.0000       0.067207         1.8288 
 141   0.0000       0.072574         1.9748 
 142   0.0000       0.076122         2.0714 
 143   0.0000       0.078590         2.1386 
 144   0.0000       0.083431         2.2703 
 145   0.0000       0.087349         2.3769 
 146   0.0000       0.090622         2.4660 
 147   0.0000       0.095094         2.5876 
 148   0.0000       0.099121         2.6972 
 149   0.0000       0.101903         2.7729 
 150   0.0000       0.106110         2.8874 
 151   0.0000       0.110309         3.0017 
 152   0.0000       0.113497         3.0884 
 153   0.0000       0.115813         3.1514 
 154   0.0000       0.118011         3.2113 
 155   0.0000       0.122434         3.3316 
 156   0.0000       0.125566         3.4168 
 157   0.0000       0.126853         3.4518 
 158   0.0000       0.130716         3.5570 
 159   0.0000       0.135573         3.6891 
 160   0.0000       0.137963         3.7542 
 161   0.0000       0.141217         3.8427 
 162   0.0000       0.142492         3.8774 
 163   0.0000       0.146074         3.9749 
 164   0.0000       0.151096         4.1115 
 165   0.0000       0.152886         4.1602 
 166   0.0000       0.155294         4.2258 
 167   0.0000       0.163006         4.4356 
 168   0.0000       0.164841         4.4856 
 169   0.0000       0.168444         4.5836 
 170   0.0000       0.170867         4.6495 
 171   0.0000       0.175786         4.7834 
 172   0.0000       0.178299         4.8518 
 173   0.0000       0.184332         5.0159 
 174   0.0000       0.186816         5.0835 
 175   0.0000       0.191027         5.1981 
 176   0.0000       0.192927         5.2498 
 177   0.0000       0.195954         5.3322 
 178   0.0000       0.198892         5.4121 
 179   0.0000       0.201015         5.4699 
 180   0.0000       0.205784         5.5997 
 181   0.0000       0.211269         5.7489 
 182   0.0000       0.213260         5.8031 
 183   0.0000       0.216077         5.8798 
 184   0.0000       0.222802         6.0628 
 185   0.0000       0.225916         6.1475 
 186   0.0000       0.229162         6.2358 
 187   0.0000       0.234655         6.3853 
 188   0.0000       0.241809         6.5800 
 189   0.0000       0.242383         6.5956 
 190   0.0000       0.247732         6.7411 
 191   0.0000       0.248652         6.7662 
 192   0.0000       0.255096         6.9415 
 193   0.0000       0.263207         7.1622 
 194   0.0000       0.269546         7.3347 
 195   0.0000       0.274503         7.4696 
 196   0.0000       0.277015         7.5380 
 197   0.0000       0.280095         7.6218 
 198   0.0000       0.287048         7.8110 
 199   0.0000       0.289255         7.8710 
 200   0.0000       0.290838         7.9141 
 201   0.0000       0.301849         8.2137 
 202   0.0000       0.303846         8.2681 
 203   0.0000       0.307477         8.3669 
 204   0.0000       0.311414         8.4740 
 205   0.0000       0.316226         8.6049 
 206   0.0000       0.320827         8.7302 
 207   0.0000       0.323729         8.8091 
 208   0.0000       0.327027         8.8989 
 209   0.0000       0.334677         9.1070 
 210   0.0000       0.337745         9.1905 
 211   0.0000       0.338933         9.2228 
 212   0.0000       0.351097         9.5538 
 213   0.0000       0.353328         9.6145 
 214   0.0000       0.356731         9.7071 
 215   0.0000       0.361378         9.8336 
 216   0.0000       0.366778         9.9805 
 217   0.0000       0.368975        10.0403 
 218   0.0000       0.376809        10.2535 
 219   0.0000       0.384055        10.4507 
 220   0.0000       0.386650        10.5213 
 221   0.0000       0.392057        10.6684 
 222   0.0000       0.395322        10.7573 
 223   0.0000       0.396401        10.7866 
 224   0.0000       0.400870        10.9082 
 225   0.0000       0.405817        11.0428 
 226   0.0000       0.406818        11.0701 
 227   0.0000       0.411033        11.1848 
 228   0.0000       0.412781        11.2324 
 229   0.0000       0.414562        11.2808 
 230   0.0000       0.417737        11.3672 
 231   0.0000       0.420609        11.4453 
 232   0.0000       0.425413        11.5761 
 233   0.0000       0.428509        11.6603 
 234   0.0000       0.431021        11.7287 
 235   0.0000       0.434064        11.8115 
 236   0.0000       0.436304        11.8724 
 237   0.0000       0.441091        12.0027 
 238   0.0000       0.441987        12.0271 
 239   0.0000       0.444722        12.1015 
 240   0.0000       0.449564        12.2333 
 241   0.0000       0.452823        12.3219 
 242   0.0000       0.453991        12.3537 
 243   0.0000       0.456443        12.4205 
 244   0.0000       0.458892        12.4871 
 245   0.0000       0.461289        12.5523 
 246   0.0000       0.462638        12.5890 
 247   0.0000       0.466357        12.6902 
 248   0.0000       0.471750        12.8370 
 249   0.0000       0.472222        12.8498 
 250   0.0000       0.474934        12.9236 
 251   0.0000       0.477808        13.0018 
 252   0.0000       0.485205        13.2031 
 253   0.0000       0.487302        13.2602 
 254   0.0000       0.490041        13.3347 
 255   0.0000       0.490911        13.3584 
 256   0.0000       0.496993        13.5239 
 257   0.0000       0.503633        13.7045 
 258   0.0000       0.508047        13.8247 
 259   0.0000       0.515168        14.0184 
 260   0.0000       0.518765        14.1163 
 261   0.0000       0.522930        14.2296 
 262   0.0000       0.525003        14.2861 
 263   0.0000       0.531346        14.4586 
 264   0.0000       0.533532        14.5181 
 265   0.0000       0.534132        14.5345 
 266   0.0000       0.541306        14.7297 
 267   0.0000       0.541687        14.7400 
 268   0.0000       0.548762        14.9326 
 269   0.0000       0.552694        15.0396 
 270   0.0000       0.555346        15.1117 
 271   0.0000       0.559626        15.2282 
 272   0.0000       0.559953        15.2371 
 273   0.0000       0.567085        15.4312 
 274   0.0000       0.571520        15.5518 
 275   0.0000       0.572769        15.5858 
 276   0.0000       0.578688        15.7469 
 277   0.0000       0.586957        15.9719 
 278   0.0000       0.591001        16.0819 
 279   0.0000       0.593322        16.1451 
 280   0.0000       0.602786        16.4026 
 281   0.0000       0.608061        16.5462 
 282   0.0000       0.621727        16.9181 
 283   0.0000       0.626599        17.0506 
 284   0.0000       0.629422        17.1274 
 285   0.0000       0.638088        17.3632 
 286   0.0000       0.639854        17.4113 
 287   0.0000       0.651133        17.7182 
 288   0.0000       0.653283        17.7767 
 289   0.0000       0.658772        17.9261 
 290   0.0000       0.663635        18.0584 
 291   0.0000       0.670491        18.2450 
 292   0.0000       0.678079        18.4515 
 293   0.0000       0.693575        18.8731 
 294   0.0000       0.696764        18.9599 
 295   0.0000       0.701404        19.0862 
 296   0.0000       0.706525        19.2255 
 297   0.0000       0.710767        19.3410 
 298   0.0000       0.712559        19.3897 
 299   0.0000       0.723233        19.6802 
 300   0.0000       0.737334        20.0639 
 301   0.0000       0.739985        20.1360 
 302   0.0000       0.745991        20.2995 
 303   0.0000       0.746647        20.3173 
 304   0.0000       0.754753        20.5379 
 305   0.0000       0.766237        20.8504 
 306   0.0000       0.777271        21.1506 
 307   0.0000       0.779415        21.2090 
 308   0.0000       0.789437        21.4817 
 309   0.0000       0.802119        21.8268 
 310   0.0000       0.802489        21.8368 
 311   0.0000       0.816552        22.2195 
 312   0.0000       0.817496        22.2452 
 313   0.0000       0.829925        22.5834 
 314   0.0000       0.838547        22.8180 
 315   0.0000       0.842667        22.9301 
 316   0.0000       0.852225        23.1902 
 317   0.0000       0.857811        23.3422 
 318   0.0000       0.861587        23.4450 
 319   0.0000       0.863923        23.5085 
 320   0.0000       0.871132        23.7047 
 321   0.0000       0.876360        23.8470 
 322   0.0000       0.881915        23.9981 
 323   0.0000       0.883783        24.0490 
 324   0.0000       0.893475        24.3127 
 325   0.0000       0.899130        24.4666 
 326   0.0000       0.906736        24.6735 
 327   0.0000       0.919626        25.0243 
 328   0.0000       0.927076        25.2270 
 329   0.0000       0.931766        25.3546 
 330   0.0000       0.943812        25.6824 
 331   0.0000       0.953759        25.9531 
 332   0.0000       0.958236        26.0749 
 333   0.0000       0.965298        26.2671 
 334   0.0000       0.969479        26.3809 
 335   0.0000       0.975196        26.5364 
 336   0.0000       0.983134        26.7524 
 337   0.0000       0.995099        27.0780 
 338   0.0000       1.000991        27.2383 
 339   0.0000       1.004701        27.3393 
 340   0.0000       1.010759        27.5041 
 341   0.0000       1.018734        27.7212 
 342   0.0000       1.026706        27.9381 
 343   0.0000       1.031409        28.0661 
 344   0.0000       1.032859        28.1055 
 345   0.0000       1.038510        28.2593 
 346   0.0000       1.043107        28.3844 
 347   0.0000       1.046955        28.4891 
 348   0.0000       1.056053        28.7367 
 349   0.0000       1.059697        28.8358 
 350   0.0000       1.067392        29.0452 
 351   0.0000       1.077395        29.3174 
 352   0.0000       1.084205        29.5027 
 353   0.0000       1.091232        29.6939 
 354   0.0000       1.095811        29.8185 
 355   0.0000       1.097462        29.8635 
 356   0.0000       1.105891        30.0928 
 357   0.0000       1.109566        30.1928 
 358   0.0000       1.120479        30.4898 
 359   0.0000       1.124178        30.5904 
 360   0.0000       1.139635        31.0111 
 361   0.0000       1.141149        31.0522 
 362   0.0000       1.147373        31.2216 
 363   0.0000       1.159422        31.5495 
 364   0.0000       1.173622        31.9359 
 365   0.0000       1.177686        32.0465 
 366   0.0000       1.190229        32.3878 
 367   0.0000       1.193600        32.4795 
 368   0.0000       1.199559        32.6417 
 369   0.0000       1.207121        32.8474 
 370   0.0000       1.213247        33.0141 
 371   0.0000       1.215885        33.0859 
 372   0.0000       1.228000        33.4156 
 373   0.0000       1.230384        33.4805 
 374   0.0000       1.237853        33.6837 
 375   0.0000       1.251472        34.0543 
 376   0.0000       1.256124        34.1809 
 377   0.0000       1.260613        34.3030 
 378   0.0000       1.273525        34.6544 
 379   0.0000       1.280352        34.8401 
 380   0.0000       1.291758        35.1505 
 381   0.0000       1.299716        35.3671 
 382   0.0000       1.301003        35.4021 
 383   0.0000       1.329571        36.1795 
 384   0.0000       1.341968        36.5168 
 385   0.0000       1.349560        36.7234 
 386   0.0000       1.371419        37.3182 
 387   0.0000       1.377136        37.4738 
 388   0.0000       1.391999        37.8782 
 389   0.0000       1.404451        38.2171 
 390   0.0000       1.416974        38.5578 
 391   0.0000       1.427442        38.8427 
 392   0.0000       1.427613        38.8473 
 393   0.0000       1.436410        39.0867 
 394   0.0000       1.445247        39.3272 
 395   0.0000       1.456992        39.6468 
 396   0.0000       1.462475        39.7960 
 397   0.0000       1.464773        39.8585 
 398   0.0000       1.469791        39.9951 
 399   0.0000       1.472828        40.0777 
 400   0.0000       1.476349        40.1735 
 401   0.0000       1.482355        40.3369 
 402   0.0000       1.483679        40.3730 
 403   0.0000       1.487740        40.4835 
 404   0.0000       1.495292        40.6890 
 405   0.0000       1.499601        40.8062 
 406   0.0000       1.507230        41.0138 
 407   0.0000       1.509028        41.0627 
 408   0.0000       1.517692        41.2985 
 409   0.0000       1.519006        41.3342 
 410   0.0000       1.523958        41.4690 
 411   0.0000       1.529770        41.6271 
 412   0.0000       1.533769        41.7360 
 413   0.0000       1.535062        41.7712 
 414   0.0000       1.541771        41.9537 
 415   0.0000       1.544169        42.0190 
 416   0.0000       1.546594        42.0850 
 417   0.0000       1.551335        42.2140 
 418   0.0000       1.554392        42.2972 
 419   0.0000       1.558095        42.3979 
 420   0.0000       1.560130        42.4533 
 421   0.0000       1.564373        42.5688 
 422   0.0000       1.567139        42.6440 
 423   0.0000       1.573872        42.8272 
 424   0.0000       1.574689        42.8495 
 425   0.0000       1.576700        42.9042 
 426   0.0000       1.578920        42.9646 
 427   0.0000       1.581087        43.0236 
 428   0.0000       1.584778        43.1240 
 429   0.0000       1.587607        43.2010 
 430   0.0000       1.589202        43.2444 
 431   0.0000       1.590633        43.2833 
 432   0.0000       1.595289        43.4100 
 433   0.0000       1.598157        43.4881 
 434   0.0000       1.599555        43.5261 
 435   0.0000       1.604382        43.6575 
 436   0.0000       1.605721        43.6939 
 437   0.0000       1.609634        43.8004 
 438   0.0000       1.612870        43.8884 
 439   0.0000       1.617149        44.0049 
 440   0.0000       1.620310        44.0909 
 441   0.0000       1.624661        44.2093 
 442   0.0000       1.626574        44.2613 
 443   0.0000       1.630837        44.3773 
 444   0.0000       1.637494        44.5585 
 445   0.0000       1.641706        44.6731 
 446   0.0000       1.646394        44.8007 
 447   0.0000       1.656024        45.0627 
 448   0.0000       1.658829        45.1390 
 449   0.0000       1.661086        45.2004 
 450   0.0000       1.666979        45.3608 
 451   0.0000       1.668048        45.3899 
 452   0.0000       1.674732        45.5718 
 453   0.0000       1.679927        45.7132 
 454   0.0000       1.683630        45.8139 
 455   0.0000       1.692249        46.0484 
 456   0.0000       1.692788        46.0631 
 457   0.0000       1.698079        46.2071 
 458   0.0000       1.708556        46.4922 
 459   0.0000       1.711392        46.5693 
 460   0.0000       1.715046        46.6688 
 461   0.0000       1.726579        46.9826 
 462   0.0000       1.735535        47.2263 
 463   0.0000       1.740393        47.3585 
 464   0.0000       1.746699        47.5301 
 465   0.0000       1.750133        47.6236 
 466   0.0000       1.756294        47.7912 
 467   0.0000       1.758547        47.8525 
 468   0.0000       1.763919        47.9987 
 469   0.0000       1.768129        48.1132 
 470   0.0000       1.776465        48.3401 
 471   0.0000       1.781988        48.4904 
 472   0.0000       1.785142        48.5762 
 473   0.0000       1.789660        48.6991 
 474   0.0000       1.798661        48.9440 
 475   0.0000       1.805126        49.1200 
 476   0.0000       1.807470        49.1838 
 477   0.0000       1.816901        49.4404 
 478   0.0000       1.820555        49.5398 
 479   0.0000       1.832733        49.8712 
 480   0.0000       1.835671        49.9511 
 481   0.0000       1.842981        50.1501 
 482   0.0000       1.848453        50.2990 
 483   0.0000       1.853680        50.4412 
 484   0.0000       1.863350        50.7043 
 485   0.0000       1.869581        50.8739 
 486   0.0000       1.885367        51.3034 
 487   0.0000       1.891873        51.4805 
 488   0.0000       1.897484        51.6332 
 489   0.0000       1.903553        51.7983 
 490   0.0000       1.911445        52.0131 
 491   0.0000       1.919197        52.2240 
 492   0.0000       1.926239        52.4156 
 493   0.0000       1.929241        52.4973 
 494   0.0000       1.934613        52.6435 
 495   0.0000       1.944975        52.9255 
 496   0.0000       1.951204        53.0950 
 497   0.0000       1.955701        53.2173 
 498   0.0000       1.965953        53.4963 
 499   0.0000       1.970197        53.6118 
 500   0.0000       1.975716        53.7620 
 501   0.0000       1.996986        54.3408 
 502   0.0000       1.997372        54.3512 
 503   0.0000       2.007623        54.6302 
 504   0.0000       2.014513        54.8177 
 505   0.0000       2.023827        55.0711 
 506   0.0000       2.028386        55.1952 
 507   0.0000       2.042716        55.5851 
 508   0.0000       2.051622        55.8275 
 509   0.0000       2.052714        55.8572 
 510   0.0000       2.065194        56.1968 
 511   0.0000       2.068908        56.2978 
 512   0.0000       2.072441        56.3940 
 513   0.0000       2.091885        56.9231 
 514   0.0000       2.096669        57.0533 
 515   0.0000       2.097930        57.0876 
 516   0.0000       2.121242        57.7219 
 517   0.0000       2.125847        57.8472 
 518   0.0000       2.127218        57.8846 
 519   0.0000       2.140841        58.2552 
 520   0.0000       2.152441        58.5709 
 521   0.0000       2.160918        58.8016 
 522   0.0000       2.166267        58.9471 
 523   0.0000       2.175506        59.1985 
 524   0.0000       2.176349        59.2215 
 525   0.0000       2.191516        59.6342 
 526   0.0000       2.192494        59.6608 
 527   0.0000       2.195645        59.7465 
 528   0.0000       2.203813        59.9688 
 529   0.0000       2.204994        60.0009 
 530   0.0000       2.213115        60.2219 
 531   0.0000       2.217091        60.3301 
 532   0.0000       2.225560        60.5606 
 533   0.0000       2.242243        61.0145 
 534   0.0000       2.245597        61.1058 
 535   0.0000       2.252447        61.2922 
 536   0.0000       2.264143        61.6105 
 537   0.0000       2.268741        61.7356 
 538   0.0000       2.281154        62.0734 
 539   0.0000       2.293087        62.3981 
 540   0.0000       2.296090        62.4798 
 541   0.0000       2.299570        62.5745 
 542   0.0000       2.306657        62.7673 
 543   0.0000       2.314211        62.9729 
 544   0.0000       2.331570        63.4452 
 545   0.0000       2.345183        63.8157 
 546   0.0000       2.346656        63.8558 
 547   0.0000       2.357643        64.1547 
 548   0.0000       2.364728        64.3475 
 549   0.0000       2.367996        64.4364 
 550   0.0000       2.370324        64.4998 
 551   0.0000       2.373840        64.5955 
 552   0.0000       2.380939        64.7887 
 553   0.0000       2.387971        64.9800 
 554   0.0000       2.389940        65.0336 
 555   0.0000       2.394387        65.1546 
 556   0.0000       2.403828        65.4115 
 557   0.0000       2.423165        65.9377 
 558   0.0000       2.431571        66.1664 
 559   0.0000       2.434665        66.2506 
 560   0.0000       2.440608        66.4123 
 561   0.0000       2.443289        66.4853 
 562   0.0000       2.445866        66.5554 
 563   0.0000       2.449315        66.6492 
 564   0.0000       2.473567        67.3092 
 565   0.0000       2.475238        67.3546 
 566   0.0000       2.478386        67.4403 
 567   0.0000       2.483191        67.5711 
 568   0.0000       2.487896        67.6991 
 569   0.0000       2.495061        67.8941 
 570   0.0000       2.503194        68.1154 
 571   0.0000       2.506708        68.2110 
 572   0.0000       2.515471        68.4494 
 573   0.0000       2.519634        68.5627 
 574   0.0000       2.521906        68.6245 
 575   0.0000       2.525357        68.7184 
 576   0.0000       2.531267        68.8793 
 577   0.0000       2.538091        69.0650 
 578   0.0000       2.540453        69.1293 
 579   0.0000       2.548944        69.3603 
 580   0.0000       2.553651        69.4884 
 581   0.0000       2.562848        69.7386 
 582   0.0000       2.568504        69.8925 
 583   0.0000       2.570893        69.9576 
 584   0.0000       2.575308        70.0777 
 585   0.0000       2.577196        70.1291 
 586   0.0000       2.588994        70.4501 
 587   0.0000       2.589559        70.4655 
 588   0.0000       2.595731        70.6334 
 589   0.0000       2.602739        70.8241 
 590   0.0000       2.604346        70.8679 
 591   0.0000       2.609943        71.0202 
 592   0.0000       2.613730        71.1232 
 593   0.0000       2.618669        71.2576 
 594   0.0000       2.627945        71.5100 
 595   0.0000       2.632683        71.6390 
 596   0.0000       2.636481        71.7423 
 597   0.0000       2.640514        71.8520 
 598   0.0000       2.651366        72.1473 
 599   0.0000       2.653574        72.2074 
 600   0.0000       2.657762        72.3214 
 601   0.0000       2.664450        72.5034 
 602   0.0000       2.670319        72.6631 
 603   0.0000       2.677878        72.8688 
 604   0.0000       2.678594        72.8883 
 605   0.0000       2.681026        72.9544 
 606   0.0000       2.691738        73.2459 
 607   0.0000       2.697914        73.4140 
 608   0.0000       2.703831        73.5750 
 609   0.0000       2.713875        73.8483 
 610   0.0000       2.717224        73.9394 
 611   0.0000       2.727057        74.2070 
 612   0.0000       2.743235        74.6472 
 613   0.0000       2.747349        74.7592 
 614   0.0000       2.755453        74.9797 
 615   0.0000       2.767492        75.3073 
 616   0.0000       2.774328        75.4933 
 617   0.0000       2.786414        75.8222 
 618   0.0000       2.796712        76.1024 
 619   0.0000       2.798961        76.1636 
 620   0.0000       2.807471        76.3952 
 621   0.0000       2.810120        76.4673 
 622   0.0000       2.816069        76.6291 
 623   0.0000       2.834117        77.1202 
 624   0.0000       2.848977        77.5246 
 625   0.0000       2.856301        77.7239 
 626   0.0000       2.876711        78.2793 
 627   0.0000       2.891180        78.6730 
 628   0.0000       2.895848        78.8000 
 629   0.0000       2.904639        79.0393 
 630   0.0000       2.913097        79.2694 
 631   0.0000       2.918501        79.4164 
 632   0.0000       2.929692        79.7210 
 633   0.0000       2.941233        80.0350 
 634   0.0000       2.943901        80.1076 
 635   0.0000       2.951833        80.3235 
 636   0.0000       2.969726        80.8104 
 637   0.0000       2.977737        81.0283 
 638   0.0000       2.990471        81.3749 
 639   0.0000       3.006779        81.8186 
 640   0.0000       3.025024        82.3151 
 641   0.0000       3.056460        83.1705 
 642   0.0000       3.060618        83.2836 
 643   0.0000       3.078095        83.7592 
 644   0.0000       3.079663        83.8019 
 645   0.0000       3.087256        84.0085 
 646   0.0000       3.100234        84.3616 
 647   0.0000       3.105651        84.5091 
 648   0.0000       3.106746        84.5389 
 649   0.0000       3.126637        85.0801 
 650   0.0000       3.139308        85.4249 
 651   0.0000       3.148532        85.6759 
 652   0.0000       3.152402        85.7812 
 653   0.0000       3.161347        86.0246 
 654   0.0000       3.168319        86.2144 
 655   0.0000       3.175056        86.3977 
 656   0.0000       3.180154        86.5364 
 657   0.0000       3.187456        86.7351 
 658   0.0000       3.195789        86.9618 
 659   0.0000       3.209018        87.3218 
 660   0.0000       3.214926        87.4826 
 661   0.0000       3.217403        87.5500 
 662   0.0000       3.224726        87.7492 
 663   0.0000       3.236723        88.0757 
 664   0.0000       3.245649        88.3186 
 665   0.0000       3.247614        88.3721 
 666   0.0000       3.262371        88.7736 
 667   0.0000       3.266389        88.8830 
 668   0.0000       3.271684        89.0270 
 669   0.0000       3.283299        89.3431 
 670   0.0000       3.285971        89.4158 
 671   0.0000       3.293272        89.6145 
 672   0.0000       3.300825        89.8200 
 673   0.0000       3.307372        89.9982 
 674   0.0000       3.313355        90.1610 
 675   0.0000       3.319550        90.3295 
 676   0.0000       3.325325        90.4867 
 677   0.0000       3.328685        90.5781 
 678   0.0000       3.334905        90.7474 
 679   0.0000       3.346319        91.0580 
 680   0.0000       3.352759        91.2332 
 681   0.0000       3.362602        91.5011 
 682   0.0000       3.369984        91.7019 
 683   0.0000       3.377873        91.9166 
 684   0.0000       3.382961        92.0551 
 685   0.0000       3.394076        92.3575 
 686   0.0000       3.398596        92.4805 
 687   0.0000       3.402283        92.5808 
 688   0.0000       3.410296        92.7989 
 689   0.0000       3.413497        92.8860 
 690   0.0000       3.423897        93.1690 
 691   0.0000       3.427888        93.2776 
 692   0.0000       3.436897        93.5227 
 693   0.0000       3.446937        93.7959 
 694   0.0000       3.457796        94.0914 
 695   0.0000       3.459567        94.1396 
 696   0.0000       3.465038        94.2885 
 697   0.0000       3.471895        94.4751 
 698   0.0000       3.474640        94.5498 
 699   0.0000       3.485828        94.8542 
 700   0.0000       3.489446        94.9527 
 701   0.0000       3.499470        95.2254 
 702   0.0000       3.506820        95.4254 
 703   0.0000       3.516039        95.6763 
 704   0.0000       3.520980        95.8107 
 705   0.0000       3.526191        95.9525 
 706   0.0000       3.544041        96.4383 
 707   0.0000       3.552742        96.6750 
 708   0.0000       3.556419        96.7751 
 709   0.0000       3.572267        97.2063 
 710   0.0000       3.575994        97.3077 
 711   0.0000       3.587379        97.6175 
 712   0.0000       3.600197        97.9664 
[...]
      pz      :    -0.000002  p :    -0.000048
      px      :    -0.000046
      py      :     0.000000
 23 H s       :    -0.000009  s :    -0.000009
      pz      :     0.000001  p :    -0.000003
      px      :    -0.000001
      py      :    -0.000003
 24 C s       :     0.000041  s :     0.000041
      pz      :     0.000155  p :     0.000164
      px      :     0.000007
      py      :     0.000002
      dz2     :    -0.000010  d :     0.000138
      dxz     :     0.000100
      dyz     :     0.000053
      dx2y2   :    -0.000041
      dxy     :     0.000036
      f0      :     0.000000  f :     0.000013
      f+1     :    -0.000001
      f-1     :     0.000001
      f+2     :     0.000004
      f-2     :    -0.000000
      f+3     :     0.000009
      f-3     :     0.000000
 25 H s       :     0.000050  s :     0.000050
      pz      :    -0.000001  p :    -0.000010
      px      :    -0.000002
      py      :    -0.000007
 26 H s       :     0.000018  s :     0.000018
      pz      :    -0.000000  p :    -0.000000
      px      :    -0.000001
      py      :     0.000001
 27 H s       :    -0.000186  s :    -0.000186
      pz      :     0.000019  p :    -0.000060
      px      :    -0.000064
      py      :    -0.000015
 28 C s       :     0.000183  s :     0.000183
      pz      :    -0.000087  p :    -0.000215
      px      :     0.000009
      py      :    -0.000136
      dz2     :     0.000103  d :     0.000493
      dxz     :     0.000079
      dyz     :     0.000125
      dx2y2   :     0.000107
      dxy     :     0.000079
      f0      :     0.000002  f :     0.000042
      f+1     :     0.000007
      f-1     :     0.000024
      f+2     :    -0.000003
      f-2     :     0.000008
      f+3     :     0.000005
      f-3     :    -0.000000
 29 H s       :     0.000140  s :     0.000140
      pz      :     0.000008  p :     0.000007
      px      :    -0.000005
      py      :     0.000004
 30 H s       :     0.000324  s :     0.000324
      pz      :    -0.000008  p :     0.000012
      px      :     0.000002
      py      :     0.000018
 31 H s       :     0.000102  s :     0.000102
      pz      :    -0.000005  p :    -0.000019
      px      :    -0.000004
      py      :    -0.000010
 32 C s       :     0.000431  s :     0.000431
      pz      :     0.000824  p :     0.002920
      px      :     0.001179
      py      :     0.000918
      dz2     :     0.000625  d :     0.002847
      dxz     :     0.000097
      dyz     :     0.000292
      dx2y2   :     0.000268
      dxy     :     0.001564
      f0      :     0.000079  f :     0.000222
      f+1     :     0.000021
      f-1     :     0.000002
      f+2     :     0.000026
      f-2     :     0.000070
      f+3     :     0.000012
      f-3     :     0.000013
 33 H s       :    -0.000226  s :    -0.000226
      pz      :     0.000021  p :     0.000013
      px      :    -0.000007
      py      :    -0.000001
 34 C s       :    -0.000017  s :    -0.000017
      pz      :     0.000304  p :     0.000153
      px      :    -0.000002
      py      :    -0.000149
      dz2     :     0.000037  d :     0.000123
      dxz     :    -0.000025
      dyz     :     0.000049
      dx2y2   :     0.000037
      dxy     :     0.000024
      f0      :    -0.000000  f :     0.000024
      f+1     :    -0.000000
      f-1     :     0.000001
      f+2     :     0.000001
      f-2     :     0.000009
      f+3     :    -0.000000
      f-3     :     0.000013
 35 H s       :     0.000030  s :     0.000030
      pz      :    -0.000000  p :    -0.000013
      px      :    -0.000002
      py      :    -0.000011
 36 H s       :    -0.000013  s :    -0.000013
      pz      :    -0.000001  p :    -0.000003
      px      :     0.000000
      py      :    -0.000002
 37 H s       :    -0.000191  s :    -0.000191
      pz      :     0.000016  p :    -0.000066
      px      :    -0.000045
      py      :    -0.000037
 38 C s       :     0.000339  s :     0.000339
      pz      :    -0.000009  p :     0.001542
      px      :     0.000512
      py      :     0.001039
      dz2     :     0.000042  d :     0.000846
      dxz     :     0.000178
      dyz     :     0.000247
      dx2y2   :    -0.000002
      dxy     :     0.000381
      f0      :     0.000003  f :     0.000030
      f+1     :     0.000007
      f-1     :     0.000011
      f+2     :     0.000004
      f-2     :     0.000003
      f+3     :    -0.000001
      f-3     :     0.000002
 39 H s       :     0.000661  s :     0.000661
      pz      :    -0.000002  p :     0.000060
      px      :     0.000014
      py      :     0.000048
 40 H s       :    -0.000003  s :    -0.000003
      pz      :    -0.000000  p :     0.000020
      px      :     0.000006
      py      :     0.000014
 41 H s       :    -0.000058  s :    -0.000058
      pz      :     0.000002  p :     0.000028
      px      :     0.000009
      py      :     0.000017
 42 C s       :     0.001280  s :     0.001280
      pz      :     0.004018  p :     0.005671
      px      :     0.001583
      py      :     0.000070
      dz2     :     0.000019  d :     0.003048
      dxz     :     0.000498
      dyz     :     0.001687
      dx2y2   :     0.000012
      dxy     :     0.000831
      f0      :     0.000001  f :     0.000156
      f+1     :     0.000008
      f-1     :     0.000111
      f+2     :     0.000001
      f-2     :     0.000021
      f+3     :     0.000011
      f-3     :     0.000002
 43 H s       :     0.002142  s :     0.002142
      pz      :     0.000236  p :     0.000301
      px      :     0.000068
      py      :    -0.000003
 44 C s       :    -0.000029  s :    -0.000029
      pz      :     0.000247  p :     0.000052
      px      :    -0.000103
      py      :    -0.000092
      dz2     :    -0.000003  d :     0.000368
      dxz     :    -0.000050
      dyz     :     0.000346
      dx2y2   :    -0.000006
      dxy     :     0.000081
      f0      :     0.000010  f :     0.000056
      f+1     :     0.000004
      f-1     :     0.000000
      f+2     :     0.000002
      f-2     :     0.000026
      f+3     :     0.000001
      f-3     :     0.000013
 45 H s       :    -0.000049  s :    -0.000049
      pz      :     0.000001  p :    -0.000005
      px      :    -0.000006
      py      :    -0.000000
 46 H s       :    -0.000181  s :    -0.000181
      pz      :     0.000021  p :    -0.000042
      px      :    -0.000028
      py      :    -0.000035
 47 H s       :     0.000013  s :     0.000013
      pz      :     0.000001  p :    -0.000009
      px      :    -0.000005
      py      :    -0.000005
 48 C s       :    -0.000047  s :    -0.000047
      pz      :     0.000280  p :     0.000352
      px      :    -0.000055
      py      :     0.000127
      dz2     :    -0.000030  d :     0.000270
      dxz     :     0.000108
      dyz     :     0.000060
      dx2y2   :     0.000049
      dxy     :     0.000083
      f0      :     0.000009  f :     0.000063
      f+1     :     0.000042
      f-1     :     0.000006
      f+2     :     0.000001
      f-2     :     0.000000
      f+3     :     0.000001
      f-3     :     0.000003
 49 H s       :    -0.000186  s :    -0.000186
      pz      :     0.000001  p :     0.000002
      px      :     0.000000
      py      :     0.000000
 50 H s       :     0.000013  s :     0.000013
      pz      :    -0.000001  p :    -0.000004
      px      :     0.000004
      py      :    -0.000007
 51 H s       :    -0.000198  s :    -0.000198
      pz      :     0.000019  p :    -0.000036
      px      :    -0.000006
      py      :    -0.000049


                      *****************************
                      * MAYER POPULATION ANALYSIS *
                      *****************************

  NA   - Mulliken gross atomic population
  ZA   - Total nuclear charge
  QA   - Mulliken gross atomic charge
  VA   - Mayer's total valence
  BVA  - Mayer's bonded valence
  FA   - Mayer's free valence

  ATOM       NA         ZA         QA         VA         BVA        FA
  0 Fe    25.7164    26.0000     0.2836     6.3337     3.2873     3.0464
  1 Br    35.4692    35.0000    -0.4692     0.9745     0.9628     0.0117
  2 Br    35.4705    35.0000    -0.4705     0.9698     0.9570     0.0128
  3 P     14.7029    15.0000     0.2971     3.9513     3.9478     0.0036
  4 P     14.6808    15.0000     0.3192     3.8971     3.8933     0.0038
  5 N      7.1533     7.0000    -0.1533     3.0708     3.0708     0.0000
  6 N      7.3368     7.0000    -0.3368     3.0249     3.0249     0.0000
  7 H      0.7813     1.0000     0.2187     0.9541     0.9541     0.0000
  8 C      6.0443     6.0000    -0.0443     3.8286     3.8285     0.0001
  9 H      0.8920     1.0000     0.1080     0.9710     0.9710     0.0000
 10 C      6.3900     6.0000    -0.3900     3.9517     3.9517     0.0000
 11 H      0.8788     1.0000     0.1212     0.9742     0.9742     0.0000
 12 H      0.9131     1.0000     0.0869     0.9746     0.9746     0.0000
 13 H      0.8318     1.0000     0.1682     0.9995     0.9995     0.0000
 14 C      6.3794     6.0000    -0.3794     3.9095     3.9095     0.0000
 15 H      0.8759     1.0000     0.1241     0.9720     0.9720     0.0000
 16 H      0.8652     1.0000     0.1348     0.9677     0.9677     0.0000
 17 H      0.8817     1.0000     0.1183     0.9735     0.9735     0.0000
 18 C      6.1320     6.0000    -0.1320     3.9221     3.9221     0.0000
 19 H      0.9079     1.0000     0.0921     0.9577     0.9577     0.0000
 20 C      6.3357     6.0000    -0.3357     3.9101     3.9101    -0.0000
 21 H      0.8836     1.0000     0.1164     0.9704     0.9704     0.0000
 22 H      0.8519     1.0000     0.1481     1.0016     1.0016     0.0000
 23 H      0.8802     1.0000     0.1198     0.9740     0.9740     0.0000
 24 C      6.3750     6.0000    -0.3750     3.9347     3.9347     0.0000
 25 H      0.8834     1.0000     0.1166     0.9722     0.9722     0.0000
 26 H      0.8752     1.0000     0.1248     0.9687     0.9687     0.0000
 27 H      0.8341     1.0000     0.1659     0.9898     0.9898     0.0000
 28 C      6.2857     6.0000    -0.2857     3.9182     3.9182     0.0000
 29 H      0.8658     1.0000     0.1342     0.9770     0.9770     0.0000
 30 H      0.8883     1.0000     0.1117     0.9672     0.9672     0.0000
 31 H      0.8539     1.0000     0.1461     0.9630     0.9630     0.0000
 32 C      6.1178     6.0000    -0.1178     3.9456     3.9455     0.0000
 33 H      0.9035     1.0000     0.0965     0.9691     0.9691     0.0000
 34 C      6.3604     6.0000    -0.3604     3.9414     3.9414     0.0000
 35 H      0.8849     1.0000     0.1151     0.9711     0.9711     0.0000
 36 H      0.8972     1.0000     0.1028     0.9856     0.9856     0.0000
 37 H      0.8259     1.0000     0.1741     0.9886     0.9886     0.0000
 38 C      6.3524     6.0000    -0.3524     3.8827     3.8827     0.0000
 39 H      0.8735     1.0000     0.1265     0.9707     0.9707     0.0000
 40 H      0.8683     1.0000     0.1317     0.9777     0.9777     0.0000
 41 H      0.8759     1.0000     0.1241     0.9744     0.9744     0.0000
 42 C      6.0224     6.0000    -0.0224     3.8714     3.8713     0.0001
 43 H      0.9179     1.0000     0.0821     0.9685     0.9685     0.0000
 44 C      6.3753     6.0000    -0.3753     3.9176     3.9176     0.0000
 45 H      0.8851     1.0000     0.1149     0.9746     0.9746     0.0000
 46 H      0.8384     1.0000     0.1616     0.9917     0.9917     0.0000
 47 H      0.8926     1.0000     0.1074     0.9820     0.9820     0.0000
 48 C      6.3726     6.0000    -0.3726     3.9676     3.9676     0.0000
 49 H      0.8829     1.0000     0.1171     0.9694     0.9694     0.0000
 50 H      0.8834     1.0000     0.1166     0.9745     0.9745     0.0000
 51 H      0.8534     1.0000     0.1466     0.9954     0.9954     0.0000

  Mayer bond orders larger than 0.100000
B(  0-Fe,  1-Br) :   0.8843 B(  0-Fe,  2-Br) :   0.8938 B(  0-Fe,  3-P ) :   0.6636 
B(  0-Fe,  4-P ) :   0.6609 B(  3-P ,  5-N ) :   1.1011 B(  3-P ,  8-C ) :   0.9275 
B(  3-P , 18-C ) :   0.9517 B(  4-P ,  6-N ) :   1.0542 B(  4-P , 32-C ) :   0.9424 
B(  4-P , 42-C ) :   0.9358 B(  5-N ,  6-N ) :   0.9151 B(  5-N , 28-C ) :   0.9497 
B(  6-N ,  7-H ) :   0.8939 B(  8-C ,  9-H ) :   0.9136 B(  8-C , 10-C ) :   0.9831 
B(  8-C , 14-C ) :   0.9528 B( 10-C , 11-H ) :   0.9530 B( 10-C , 12-H ) :   0.9701 
B( 10-C , 13-H ) :   0.9440 B( 14-C , 15-H ) :   0.9574 B( 14-C , 16-H ) :   0.9673 
B( 14-C , 17-H ) :   0.9630 B( 18-C , 19-H ) :   0.9186 B( 18-C , 20-C ) :   0.9785 
B( 18-C , 24-C ) :   0.9752 B( 20-C , 21-H ) :   0.9512 B( 20-C , 22-H ) :   0.9521 
B( 20-C , 23-H ) :   0.9635 B( 24-C , 25-H ) :   0.9554 B( 24-C , 26-H ) :   0.9632 
B( 24-C , 27-H ) :   0.9528 B( 28-C , 29-H ) :   0.9594 B( 28-C , 30-H ) :   0.9567 
B( 28-C , 31-H ) :   0.9545 B( 32-C , 33-H ) :   0.9120 B( 32-C , 34-C ) :   1.0168 
B( 32-C , 38-C ) :   0.9602 B( 34-C , 35-H ) :   0.9543 B( 34-C , 36-H ) :   0.9607 
B( 34-C , 37-H ) :   0.9520 B( 38-C , 39-H ) :   0.9573 B( 38-C , 40-H ) :   0.9632 
B( 38-C , 41-H ) :   0.9628 B( 42-C , 43-H ) :   0.9165 B( 42-C , 44-C ) :   0.9760 
B( 42-C , 48-C ) :   0.9835 B( 44-C , 45-H ) :   0.9530 B( 44-C , 46-H ) :   0.9458 
B( 44-C , 47-H ) :   0.9675 B( 48-C , 49-H ) :   0.9478 B( 48-C , 50-H ) :   0.9664 
B( 48-C , 51-H ) :   0.9502 


------------------
HIRSHFELD ANALYSIS
------------------

Total integrated alpha density =    127.000133384
Total integrated beta density  =    123.000132948

  ATOM     CHARGE      SPIN    
   0 Fe   0.075936    3.439948
   1 Br  -0.286666    0.192979
   2 Br  -0.294198    0.201236
   3 P    0.205532    0.055551
   4 P    0.217499    0.055607
   5 N   -0.093105    0.002519
   6 N   -0.140547   -0.000908
   7 H    0.101159   -0.000102
   8 C   -0.036330    0.007057
   9 H    0.041217    0.000060
  10 C   -0.066544    0.000585
  11 H    0.031018   -0.000147
  12 H    0.015626    0.000032
  13 H    0.020505    0.001836
  14 C   -0.066166    0.003060
  15 H    0.029374    0.001300
  16 H    0.025314    0.000194
  17 H    0.022225    0.000137
  18 C   -0.032483    0.004826
  19 H    0.023574    0.003096
  20 C   -0.064966    0.000464
  21 H    0.027412   -0.000141
  22 H    0.025453    0.001189
  23 H    0.021285    0.000053
  24 C   -0.060026    0.000472
  25 H    0.030315    0.000043
  26 H    0.026419    0.000022
  27 H    0.033511    0.000341
  28 C   -0.009178    0.000518
  29 H    0.032318    0.000153
  30 H    0.022926    0.000389
  31 H    0.037654    0.000266
  32 C   -0.026965    0.005739
  33 H    0.035469    0.000055
  34 C   -0.060999    0.000449
  35 H    0.030328    0.000010
  36 H    0.025538    0.000017
  37 H    0.031436    0.000533
  38 C   -0.064324    0.002768
  39 H    0.030095    0.001081
  40 H    0.024039    0.000144
  41 H    0.028910    0.000130
  42 C   -0.035044    0.009832
  43 H    0.028134    0.003303
  44 C   -0.062068    0.000549
  45 H    0.030128    0.000006
  46 H    0.033328    0.000460
  47 H    0.023646    0.000056
  48 C   -0.064245    0.000853
  49 H    0.028362   -0.000112
  50 H    0.021353    0.000087
  51 H    0.026549    0.001409

  TOTAL  -0.000266    4.000000

-------
TIMINGS
-------

Total SCF time: 0 days 0 hours 1 min 39 sec 

Total time                  ....      99.587 sec
Sum of individual times     ....      94.625 sec  ( 95.0%)

Fock matrix formation       ....      67.030 sec  ( 67.3%)
  Split-RI-J                ....       8.466 sec  ( 12.6% of F)
  Chain of spheres X        ....      38.140 sec  ( 56.9% of F)
  XC integration            ....      15.433 sec  ( 23.0% of F)
    Basis function eval.    ....       0.558 sec  (  3.6% of XC)
    Density eval.           ....       4.875 sec  ( 31.6% of XC)
    XC-Functional eval.     ....       0.144 sec  (  0.9% of XC)
    XC-Potential eval.      ....       2.759 sec  ( 17.9% of XC)
Diagonalization             ....      13.698 sec  ( 13.8%)
Density matrix formation    ....       0.621 sec  (  0.6%)
Population analysis         ....       3.729 sec  (  3.7%)
Initial guess               ....       0.607 sec  (  0.6%)
Orbital Transformation      ....       0.000 sec  (  0.0%)
Orbital Orthonormalization  ....       0.000 sec  (  0.0%)
DIIS solution               ....       6.287 sec  (  6.3%)
Grid generation             ....       2.653 sec  (  2.7%)

Maximum memory used throughout the entire SCF-calculation: 240.8 MB


-------------------------------------------------------------------------------
                          DFT DISPERSION CORRECTION                            
                                                                               
                              DFTD3 V3.1  Rev 1                                
                          USING Becke-Johnson damping                          
-------------------------------------------------------------------------------
The TPSSH functional is recognized
Active option DFTDOPT                   ...         4   

molecular C6(AA) [au] = 33739.620482 


            DFT-D V3
 parameters
 s6 scaling factor         :     1.0000 
 a1 scaling factor         :     0.4529 
 s8 scaling factor         :     2.2382 
 a2 scaling factor         :     4.6550 
 ad hoc parameters k1-k3   :    16.0000     1.3333    -4.0000 

 Edisp/kcal,au: -65.900079573664  -0.105018450347 
 E6   /kcal   : -29.845586504 
 E8   /kcal   : -36.054493070 
 % E8         :  54.710849066 

-------------------------   ----------------
Dispersion correction           -0.105018450
-------------------------   ----------------


-------------------------   --------------------
FINAL SINGLE POINT ENERGY     -7719.347579614914
-------------------------   --------------------


                            ***************************************
                            *     ORCA property calculations      *
                            ***************************************

                                    ---------------------
                                    Active property flags
                                    ---------------------
   (+) Dipole Moment


------------------------------------------------------------------------------
                       ORCA ELECTRIC PROPERTIES CALCULATION
------------------------------------------------------------------------------

Dipole Moment Calculation                       ... on
Quadrupole Moment Calculation                   ... off
Polarizability Calculation                      ... off
GBWName                                         ... AJALIH_5_SPE.gbw
Electron density                                ... AJALIH_5_SPE.scfp
The origin for moment calculation is the CENTER OF MASS  = ( 0.041640, -0.319388  0.086827)

-------------
DIPOLE MOMENT
-------------
                                X             Y             Z
Electronic contribution:      9.86073     -76.33054      21.17886
Nuclear contribution   :    -10.41005      79.84711     -21.70664
                        -----------------------------------------
Total Dipole Moment    :     -0.54932       3.51657      -0.52778
                        -----------------------------------------
Magnitude (a.u.)       :      3.59813
Magnitude (Debye)      :      9.14573



--------------------
Rotational spectrum 
--------------------
 
Rotational constants in cm-1:     0.005923     0.005526     0.005116 
Rotational constants in MHz :   177.569312   165.677971   153.366179 

 Dipole components along the rotational axes: 
x,y,z [a.u.] :     0.857349     3.482402    -0.290496 
x,y,z [Debye]:     2.179208     8.851563    -0.738382 

 

Timings for individual modules:

Sum of individual times         ...     3064.505 sec (=  51.075 min)
GTO integral calculation        ...     1539.515 sec (=  25.659 min)  50.2 %
SCF iterations                  ...     1524.990 sec (=  25.417 min)  49.8 %
                             ****ORCA TERMINATED NORMALLY****
TOTAL RUN TIME: 0 days 1 hours 16 minutes 32 seconds 830 msec
