43
ZOFDAC_2_opt.log	Energy: -1754507.5025849
C         -2.41187       -0.17869       -0.21076
C         -3.69617       -0.75071       -0.21376
H         -3.73695       -1.83950       -0.23187
C         -4.81707        0.04154       -0.16988
C         -4.70549        1.44330       -0.16004
H         -5.62339        2.03561       -0.14123
C         -3.47688        2.01470       -0.15706
H         -3.38530        3.10642       -0.13791
C         -2.29208        1.24258       -0.16199
C         -1.05129        1.91201       -0.13326
H         -1.09132        3.01258       -0.16996
C          1.31219        2.05824       -0.09652
C          3.01157        4.18823        0.11843
H          3.51346        3.65883        0.94180
H          3.49041        3.91263       -0.83276
C          3.37941       -0.56917       -0.73986
C          3.35438       -1.96871       -0.93806
C          2.26002       -2.78129       -0.89705
C          2.36020       -4.25953       -1.14722
H          1.64048       -4.54885       -1.93140
H          2.06720       -4.79763       -0.22875
C          4.66733        0.18341       -0.95539
H          4.93018        0.75164       -0.04863
H          4.54544        0.92669       -1.76032
Fe         0.46734       -0.71828        0.12015
N          0.11757        1.32651       -0.08455
N          2.43670        1.46047       -0.24504
N          2.29073        0.07699       -0.37968
N          0.66292       -0.98791        2.03556
N          1.52403       -1.63336        2.51433
N          2.33511       -2.21738        3.03375
O         -1.38050       -0.97307       -0.26711
O         -6.08132       -0.42812       -0.12951
O          1.05869       -2.35582       -0.66095
S          1.26145        3.80187        0.09492
C         -6.27115       -1.84792       -0.11565
H         -7.35716       -2.00987       -0.06971
H         -5.79053       -2.30519        0.76750
H          3.07629        5.27622        0.27238
H          5.48359       -0.50515       -1.21408
H          3.37304       -4.57153       -1.44154
H          4.31434       -2.43269       -1.17570
H         -5.86664       -2.31379       -1.03200
