Found environment variable SKIP_PARASTAT
   -> do NOT perform a parallel statistics run for the task
      distribution, use automatic task generation instead
STARTING dscf ON 2 PROCESSORS!
RUNNING PROGRAM /software/turbomole/7.1.1/bin/em64t-unknown-linux-gnu_mpi/dscf_mpi.
PLEASE WAIT UNTIL dscf HAS FINISHED.
 operating system is UNIX !
 hostname is lcmdlc3.epfl.ch
  this is node-proc. number 1 running on node lcmdlc3.epfl.ch
  the total number of node-proc. spawned is            2
  parallel platform: MPP, or cluster with fast interconnect

 dscf (lcmdlc3.epfl.ch) : TURBOMOLE V7.1 ( 20888 ) 24 Nov 2016 at 15:04:29
 Copyright (C) 2016 TURBOMOLE GmbH, Karlsruhe


    2025-12-07 23:09:43.539 


 SCF run will be profiled !



                             d s c f - program

                   idea & directorship : reinhart ahlrichs
                   program development : marco haeser
                                         michael baer
                           dft version : oliver treutler
           parallelized version : malte v. arnim, gina corongiu, GMD 


                          quantum chemistry group
                          universitaet  karlsruhe
                                  germany




                          References             
                                                 
          TURBOMOLE:                             
              R. Ahlrichs, M. Baer, M. Haeser, H. Horn, and
              C. Koelmel
              Electronic structure calculations on workstation
              computers: the program system TURBOMOLE
              Chem. Phys. Lett. 162: 165 (1989)
          Density Functional:                              
              O. Treutler and R. Ahlrichs                      
              Efficient Molecular Numerical Integration Schemes
              J. Chem. Phys. 102: 346 (1995)                   
          Parallel Version:                                
              Performance of parallel TURBOMOLE for Density    
              Functional Calculations                          
              M. v. Arnim and R. Ahlrichs                      
              J. Comp. Chem. 19: 1746 (1998)                   
                                         




              +--------------------------------------------------+
              | Atomic coordinate, charge and isotop information |
              +--------------------------------------------------+

                    atomic coordinates            atom    charge  isotop
          0.35385500   -0.10534278   -0.21266033    o      8.000     0
         -1.20511804   -0.99108199   -0.72016140    h      1.000     0
          0.85126304    1.09642477    0.93282173    h      1.000     0
 
       center of nuclear mass  :    0.29445975   -0.08766079   -0.17696488
       center of nuclear charge:    0.24769850   -0.07373995   -0.14886223

              +--------------------------------------------------+
              |               basis set information              |
              +--------------------------------------------------+

              we will work with the 1s 3p 5d 7f 9g ... basis set
              ...i.e. with spherical basis functions...

   type   atoms  prim   cont   basis
   ---------------------------------------------------------------------------
    o        1     77     55   cc-pVQZ   [5s4p3d2f1g|21s6p3d2f1g]
    h        2     32     30   cc-pVQZ   [4s3p2d1f|6s3p2d1f]
   ---------------------------------------------------------------------------
   total:    3    141    115
   ---------------------------------------------------------------------------

   total number of primitive shells          :   45
   total number of contracted shells         :   35
   total number of cartesian basis functions :  140
   total number of SCF-basis functions       :  115


 integral neglect threshold       :  0.24E-10
 integral storage threshold THIZE :  0.10E-04
 integral storage threshold THIME :         5


 symmetry group of the molecule :   c1 

 the group has the following generators :
   c1(z)

    1 symmetry operations found

 there are 1 real representations :   a   

 maximum number of shells which are related by symmetry :  1


    mo occupation :
   irrep   mo's   occupied
    a      115        5
 
 number of basis functions   :          115
 number of occupied orbitals :            5
 

 automatic virtual orbital shift switched on 
      shift if e(lumo)-e(homo) < 0.10000000    


          ------------------------
          nuclear repulsion energy  :   9.20620977629    
          ------------------------

 
          -----------------
          -S integrals
          -----------------

 1e-integrals will be neglected if expon. factor < 0.238712E-11
 
          -----------------
          -T+V integrals
          -----------------

 1e-integrals will be neglected if expon. factor < 0.238712E-11
 
   Difference densities algorithm switched on.
   The maximal number of linear combinations of
   difference densities is          20 .

 DIIS switched on: error vector is FDS-SDF
 Max. Iterations for DIIS is     :   5
 DIIS matrix (see manual) 
    Scaling factor of diagonals  :  1.200
    threshold for scaling factor :  0.000

 scf convergence criterion : increment of total energy < .1000000D-06
                  and increment of one-electron energy < .1000000D-03

  MOs are in ASCII format !


 reading orbital data $scfmo  from file mos
 orbital characterization : expanded
 mo provided and orthogonalized by Cholesky decomposition

 DSCF restart information will be dumped onto file mos


  STARTING INTEGRAL EVALUATION FOR 1st SCF ITERATION
  time elapsed for pre-SCF steps : cpu            0.298 sec
                                   wall  1765148983.623 sec

 
                                              current damping :  0.300
 ITERATION  ENERGY          1e-ENERGY        2e-ENERGY     NORM[dD(SAO)]  TOL
   1  -75.840400508609    -124.33036353     39.283753249    0.000D+00 0.238D-10
          max. resid. norm for Fia-block=  3.323D-01 for orbital      1a         
          max. resid. fock norm         =  1.476D+01 for orbital    110a         
          Delta Eig. =   894.1037721567 eV 
 
                                              current damping :  0.250
 ITERATION  ENERGY          1e-ENERGY        2e-ENERGY     NORM[dD(SAO)]  TOL
   2  -76.014335505337    -123.07269078     37.852145501    0.568D+00 0.163D-10
          Norm of current diis error: 0.91793    
          max. resid. norm for Fia-block=  9.969D-02 for orbital      1a         
          max. resid. fock norm         =  1.587D-01 for orbital     92a         
          Delta Eig. =   207.0682574190 eV 
 
                                              current damping :  0.200
 ITERATION  ENERGY          1e-ENERGY        2e-ENERGY     NORM[dD(SAO)]  TOL
   3  -76.035645559763    -123.34475629     38.102900952    0.133D+00 0.124D-10
          Norm of current diis error: 0.32153    
          max. resid. norm for Fia-block=  3.418D-02 for orbital      4a         
          max. resid. fock norm         =  3.426D-02 for orbital      4a         
          Delta Eig. =    45.2941063576 eV 
 
                                              current damping :  0.250
 ITERATION  ENERGY          1e-ENERGY        2e-ENERGY     NORM[dD(SAO)]  TOL
   4  -76.039960773382    -123.15570314     37.909532594    0.373D-01 0.108D-10
          Norm of current diis error: 0.11331    
          max. resid. norm for Fia-block=  1.573D-02 for orbital      3a         
          max. resid. fock norm         =  1.576D-02 for orbital      3a         
          Delta Eig. =     6.5907974047 eV 
 
                                              current damping :  0.300
 ITERATION  ENERGY          1e-ENERGY        2e-ENERGY     NORM[dD(SAO)]  TOL
   5  -76.040632941683    -123.19324777     37.946405049    0.104D-01 0.101D-10
          Norm of current diis error: 0.44766E-01
          max. resid. norm for Fia-block=  7.386D-03 for orbital      4a         
          max. resid. fock norm         =  7.426D-03 for orbital      4a         
 mo-orthogonalization: Cholesky decomposition
          Delta Eig. =     1.3700452874 eV 
 
                                              current damping :  0.350
 ITERATION  ENERGY          1e-ENERGY        2e-ENERGY     NORM[dD(SAO)]  TOL
   6  -76.040771214761    -123.18478505     37.937804062    0.236D-02 0.938D-11
          Norm of current diis error: 0.17990E-01
          max. resid. norm for Fia-block=  3.277D-03 for orbital      4a         
          max. resid. fock norm         =  3.307D-03 for orbital      4a         
          Delta Eig. =     0.2696069939 eV 
 
                                              current damping :  0.400
 ITERATION  ENERGY          1e-ENERGY        2e-ENERGY     NORM[dD(SAO)]  TOL
   7  -76.040794259945    -123.18553376     37.938529719    0.343D-03 0.876D-11
          Norm of current diis error: 0.65864E-02
          max. resid. norm for Fia-block=  1.387D-03 for orbital      4a         
          max. resid. fock norm         =  1.400D-03 for orbital      4a         
          Delta Eig. =     0.0698448024 eV 
 
                                              current damping :  0.450
 ITERATION  ENERGY          1e-ENERGY        2e-ENERGY     NORM[dD(SAO)]  TOL
   8  -76.040797617873    -123.18507334     37.938065947    0.688D-04 0.824D-11
          Norm of current diis error: 0.25879E-02
          max. resid. norm for Fia-block=  5.870D-04 for orbital      4a         
          max. resid. fock norm         =  5.947D-04 for orbital      4a         
          Delta Eig. =     0.0168839720 eV 
 
                                              current damping :  0.500
 ITERATION  ENERGY          1e-ENERGY        2e-ENERGY     NORM[dD(SAO)]  TOL
   9  -76.040798167799    -123.18511520     37.938107261    0.106D-04 0.775D-11
          Norm of current diis error: 0.10726E-02
          max. resid. norm for Fia-block=  2.630D-04 for orbital      4a         
          max. resid. fock norm         =  2.666D-04 for orbital      4a         
          Delta Eig. =     0.0059755819 eV 
 
                                              current damping :  0.550
 ITERATION  ENERGY          1e-ENERGY        2e-ENERGY     NORM[dD(SAO)]  TOL
  10  -76.040798268489    -123.18499160     37.937983556    0.262D-05 0.731D-11
          Norm of current diis error: 0.48895E-03
          max. resid. norm for Fia-block=  1.236D-04 for orbital      4a         
          max. resid. fock norm         =  1.259D-04 for orbital      4a         
 mo-orthogonalization: Cholesky decomposition
          Delta Eig. =     0.0014379091 eV 

 ENERGY CONVERGED !

 
                                              current damping :  0.600
 ITERATION  ENERGY          1e-ENERGY        2e-ENERGY     NORM[dD(SAO)]  TOL
  11  -76.040798290446    -123.18499765     37.937989584    0.653D-06 0.692D-11
          max. resid. norm for Fia-block=  3.392D-05 for orbital      4a         
          max. resid. fock norm         =  3.463D-05 for orbital      4a         

 convergence criteria satisfied after 11 iterations


                  ------------------------------------------ 
                 |  total energy      =    -76.04079829045  |
                  ------------------------------------------ 
                 :  kinetic energy    =     75.96991721378  :
                 :  potential energy  =   -152.01071550422  :
                 :  virial theorem    =      1.99906785465  :
                 :  wavefunction norm =      1.00000000000  :
                  .......................................... 


 orbitals $scfmo  will be written to file mos

    irrep                  1a          2a          3a          4a          5a   
 eigenvalues H        -20.53922    -1.33084    -0.76690    -0.52106    -0.49649
            eV        -558.9052    -36.2143    -20.8687    -14.1788    -13.5102
 occupation              2.0000      2.0000      2.0000      2.0000      2.0000 

    irrep                  6a          7a          8a          9a         10a   
 eigenvalues H          0.11833     0.16314     0.40667     0.49981     0.52240
            eV           3.2201      4.4394     11.0660     13.6005     14.2152
 
 
 
 
 ==============================================================================
                           electrostatic moments
 ==============================================================================

 reference point for electrostatic moments:    0.00000   0.00000   0.00000

 
              nuc           elec       ->  total
 ------------------------------------------------------------------------------
                          charge      
 ------------------------------------------------------------------------------
          10.000000     -10.000000       0.000000
 
 ------------------------------------------------------------------------------
                       dipole moment  
 ------------------------------------------------------------------------------
   x       2.476985      -2.911758      -0.434773
   y      -0.737399       0.865301       0.127902
   z      -1.488622       1.748275       0.259653
 
   | dipole moment | =     0.5223 a.u. =     1.3276 debye 
 
 ------------------------------------------------------------------------------
                     quadrupole moment
 ------------------------------------------------------------------------------
  xx       3.178665      -7.453558      -4.274893
  yy       2.273168      -6.482204      -4.209037
  zz       1.750584      -6.449777      -4.699193
  xy       1.829508      -0.528241       1.301267
  xz       1.059949      -0.027858       1.032091
  yz       1.915726      -0.847489       1.068237
 
     1/3  trace=      -4.394374
     anisotropy=       3.451264
 
 ==============================================================================
 

    dscf profiling
  --------------------------------------------------------------------
             module   cpu total (s)       %  wall total (s)       %

          dscf.total            11.7  100.00             5.6  100.00
        dscf.prepare             0.0    0.42             0.0    0.71
      prepare.oneint             0.0    0.04             0.0    0.09
     prepare.moinput             0.0    0.01             0.0    0.02
     prepare.orthmos             0.0    0.10             0.0    0.07
            dscf.scf            11.7   99.21             5.6   99.09
             scf.pre             0.0    0.05             0.0    0.04
        scf.makedmat             0.7    5.80             0.2    3.99
          scf.shlupf             9.8   83.38             4.9   87.94
         dscf.shloop             8.6   73.33             4.6   81.23
          scf.symcar             0.0    0.01             0.0    0.05
        scf.makefock             0.0    0.08             0.1    1.83
          scf.newerg             0.0    0.00             0.0    0.02
          scf.newcnv             0.0    0.20             0.0    0.09
           scf.fdiag             0.2    1.70             0.1    0.93
         diag_tritrn             0.0    0.09             0.0    0.07
          diag_rdiag             0.2    1.55             0.0    0.84
          scf.modump             0.8    6.93             0.2    3.63
           ortho_all             0.0    0.11             0.0    0.05
            scf.post             0.1    0.84             0.0    0.48
        dscf.postscf             0.0    0.36             0.0    0.20
 


    ------------------------------------------------------------------------
         total  cpu-time :  11.79 seconds
         total wall-time :   5.65 seconds
    ------------------------------------------------------------------------

   ****  dscf : all done  ****


    2025-12-07 23:09:49.169 

