Found environment variable SKIP_PARASTAT
   -> do NOT perform a parallel statistics run for the task
      distribution, use automatic task generation instead
STARTING dscf ON 2 PROCESSORS!
RUNNING PROGRAM /software/turbomole/7.1.1/bin/em64t-unknown-linux-gnu_mpi/dscf_mpi.
PLEASE WAIT UNTIL dscf HAS FINISHED.
 operating system is UNIX !
 hostname is lcmdlc3.epfl.ch
  this is node-proc. number 1 running on node lcmdlc3.epfl.ch
  the total number of node-proc. spawned is            2
  parallel platform: MPP, or cluster with fast interconnect

 dscf (lcmdlc3.epfl.ch) : TURBOMOLE V7.1 ( 20888 ) 24 Nov 2016 at 15:04:29
 Copyright (C) 2016 TURBOMOLE GmbH, Karlsruhe


    2025-12-07 23:10:01.517 


 SCF run will be profiled !



                             d s c f - program

                   idea & directorship : reinhart ahlrichs
                   program development : marco haeser
                                         michael baer
                           dft version : oliver treutler
           parallelized version : malte v. arnim, gina corongiu, GMD 


                          quantum chemistry group
                          universitaet  karlsruhe
                                  germany




                          References             
                                                 
          TURBOMOLE:                             
              R. Ahlrichs, M. Baer, M. Haeser, H. Horn, and
              C. Koelmel
              Electronic structure calculations on workstation
              computers: the program system TURBOMOLE
              Chem. Phys. Lett. 162: 165 (1989)
          Density Functional:                              
              O. Treutler and R. Ahlrichs                      
              Efficient Molecular Numerical Integration Schemes
              J. Chem. Phys. 102: 346 (1995)                   
          Parallel Version:                                
              Performance of parallel TURBOMOLE for Density    
              Functional Calculations                          
              M. v. Arnim and R. Ahlrichs                      
              J. Comp. Chem. 19: 1746 (1998)                   
                                         




              +--------------------------------------------------+
              | Atomic coordinate, charge and isotop information |
              +--------------------------------------------------+

                    atomic coordinates            atom    charge  isotop
          0.35385500   -0.10534278   -0.21266033    o      8.000     0
         -1.20511804   -0.99108199   -0.72016140    h      1.000     0
          0.85126304    1.09642477    0.93282173    h      1.000     0
 
       center of nuclear mass  :    0.29445975   -0.08766079   -0.17696488
       center of nuclear charge:    0.24769850   -0.07373995   -0.14886223

              +--------------------------------------------------+
              |               basis set information              |
              +--------------------------------------------------+

              we will work with the 1s 3p 5d 7f 9g ... basis set
              ...i.e. with spherical basis functions...

   type   atoms  prim   cont   basis
   ---------------------------------------------------------------------------
    o        1     50     30   cc-pVTZ   [4s3p2d1f|18s5p2d1f]
    h        2     16     14   cc-pVTZ   [3s2p1d|5s2p1d]
   ---------------------------------------------------------------------------
   total:    3     82     58
   ---------------------------------------------------------------------------

   total number of primitive shells          :   34
   total number of contracted shells         :   22
   total number of cartesian basis functions :   65
   total number of SCF-basis functions       :   58


 integral neglect threshold       :  0.51E-10
 integral storage threshold THIZE :  0.10E-04
 integral storage threshold THIME :         5


 symmetry group of the molecule :   c1 

 the group has the following generators :
   c1(z)

    1 symmetry operations found

 there are 1 real representations :   a   

 maximum number of shells which are related by symmetry :  1


    mo occupation :
   irrep   mo's   occupied
    a       58        5
 
 number of basis functions   :           58
 number of occupied orbitals :            5
 

 automatic virtual orbital shift switched on 
      shift if e(lumo)-e(homo) < 0.10000000    


          ------------------------
          nuclear repulsion energy  :   9.20620977629    
          ------------------------

 
          -----------------
          -S integrals
          -----------------

 1e-integrals will be neglected if expon. factor < 0.514148E-11
 
          -----------------
          -T+V integrals
          -----------------

 1e-integrals will be neglected if expon. factor < 0.514148E-11
 
   Difference densities algorithm switched on.
   The maximal number of linear combinations of
   difference densities is          20 .

 DIIS switched on: error vector is FDS-SDF
 Max. Iterations for DIIS is     :   5
 DIIS matrix (see manual) 
    Scaling factor of diagonals  :  1.200
    threshold for scaling factor :  0.000

 scf convergence criterion : increment of total energy < .1000000D-06
                  and increment of one-electron energy < .1000000D-03

  MOs are in ASCII format !


 reading orbital data $scfmo  from file mos
 orbital characterization : expanded
 mo provided and orthogonalized by Cholesky decomposition

 DSCF restart information will be dumped onto file mos


  STARTING INTEGRAL EVALUATION FOR 1st SCF ITERATION
  time elapsed for pre-SCF steps : cpu            0.326 sec
                                   wall  1765149001.604 sec

 
                                              current damping :  0.300
 ITERATION  ENERGY          1e-ENERGY        2e-ENERGY     NORM[dD(SAO)]  TOL
   1  -75.838000527301    -124.32369796     39.279487658    0.000D+00 0.513D-10
          max. resid. norm for Fia-block=  3.254D-01 for orbital      1a         
          max. resid. fock norm         =  4.624D+00 for orbital     56a         
          Delta Eig. =   235.2169227072 eV 
 
                                              current damping :  0.250
 ITERATION  ENERGY          1e-ENERGY        2e-ENERGY     NORM[dD(SAO)]  TOL
   2  -76.007841877917    -123.05937030     37.845318646    0.245D+00 0.337D-10
          Norm of current diis error: 0.66123    
          max. resid. norm for Fia-block=  9.758D-02 for orbital      1a         
          max. resid. fock norm         =  1.261D-01 for orbital     39a         
          Delta Eig. =    52.9279934019 eV 
 
                                              current damping :  0.200
 ITERATION  ENERGY          1e-ENERGY        2e-ENERGY     NORM[dD(SAO)]  TOL
   3  -76.027956373563    -123.36306624     38.128900085    0.101D+00 0.272D-10
          Norm of current diis error: 0.23388    
          max. resid. norm for Fia-block=  3.371D-02 for orbital      4a         
          max. resid. fock norm         =  3.380D-02 for orbital      4a         
          Delta Eig. =    12.3124513606 eV 
 
                                              current damping :  0.250
 ITERATION  ENERGY          1e-ENERGY        2e-ENERGY     NORM[dD(SAO)]  TOL
   4  -76.031936840015    -123.19284921     37.954702596    0.392D-01 0.234D-10
          Norm of current diis error: 0.82472E-01
          max. resid. norm for Fia-block=  1.458D-02 for orbital      3a         
          max. resid. fock norm         =  1.461D-02 for orbital      3a         
          Delta Eig. =     1.6548638069 eV 
 
                                              current damping :  0.300
 ITERATION  ENERGY          1e-ENERGY        2e-ENERGY     NORM[dD(SAO)]  TOL
   5  -76.032541170021    -123.22669818     37.987947237    0.895D-02 0.213D-10
          Norm of current diis error: 0.32128E-01
          max. resid. norm for Fia-block=  7.242D-03 for orbital      4a         
          max. resid. fock norm         =  7.288D-03 for orbital      4a         
 mo-orthogonalization: Cholesky decomposition
          Delta Eig. =     0.3637169246 eV 
 
                                              current damping :  0.350
 ITERATION  ENERGY          1e-ENERGY        2e-ENERGY     NORM[dD(SAO)]  TOL
   6  -76.032663765756    -123.22162983     37.982756291    0.157D-02 0.195D-10
          Norm of current diis error: 0.12976E-01
          max. resid. norm for Fia-block=  3.308D-03 for orbital      4a         
          max. resid. fock norm         =  3.342D-03 for orbital      4a         
          Delta Eig. =     0.0640589910 eV 
 
                                              current damping :  0.400
 ITERATION  ENERGY          1e-ENERGY        2e-ENERGY     NORM[dD(SAO)]  TOL
   7  -76.032685097503    -123.22240079     37.983505919    0.262D-03 0.181D-10
          Norm of current diis error: 0.48695E-02
          max. resid. norm for Fia-block=  1.423D-03 for orbital      4a         
          max. resid. fock norm         =  1.438D-03 for orbital      4a         
          Delta Eig. =     0.0160721530 eV 
 
                                              current damping :  0.450
 ITERATION  ENERGY          1e-ENERGY        2e-ENERGY     NORM[dD(SAO)]  TOL
   8  -76.032688416509    -123.22202267     37.983124476    0.366D-04 0.170D-10
          Norm of current diis error: 0.19460E-02
          max. resid. norm for Fia-block=  6.096D-04 for orbital      4a         
          max. resid. fock norm         =  6.185D-04 for orbital      4a         
          Delta Eig. =     0.0044674912 eV 
 
                                              current damping :  0.500
 ITERATION  ENERGY          1e-ENERGY        2e-ENERGY     NORM[dD(SAO)]  TOL
   9  -76.032688983350    -123.22208058     37.983181816    0.934D-05 0.161D-10
          Norm of current diis error: 0.80164E-03
          max. resid. norm for Fia-block=  2.686D-04 for orbital      4a         
          max. resid. fock norm         =  2.726D-04 for orbital      4a         
          Delta Eig. =     0.0011895754 eV 
 
                                              current damping :  0.550
 ITERATION  ENERGY          1e-ENERGY        2e-ENERGY     NORM[dD(SAO)]  TOL
  10  -76.032689085820    -123.22194985     37.983050989    0.232D-05 0.153D-10
          Norm of current diis error: 0.35900E-03
          max. resid. norm for Fia-block=  1.232D-04 for orbital      4a         
          max. resid. fock norm         =  1.257D-04 for orbital      4a         
 mo-orthogonalization: Cholesky decomposition
          Delta Eig. =     0.0006941601 eV 

 ENERGY CONVERGED !

 
                                              current damping :  0.400
 ITERATION  ENERGY          1e-ENERGY        2e-ENERGY     NORM[dD(SAO)]  TOL
  11  -76.032689107238    -123.22194860     37.983049721    0.584D-06 0.147D-10
          max. resid. norm for Fia-block=  3.189D-05 for orbital      4a         
          max. resid. fock norm         =  3.260D-05 for orbital      4a         

 convergence criteria satisfied after 11 iterations


                  ------------------------------------------ 
                 |  total energy      =    -76.03268910724  |
                  ------------------------------------------ 
                 :  kinetic energy    =     75.96980379117  :
                 :  potential energy  =   -152.00249289841  :
                 :  virial theorem    =      1.99917291738  :
                 :  wavefunction norm =      1.00000000000  :
                  .......................................... 


 orbitals $scfmo  will be written to file mos

    irrep                  1a          2a          3a          4a          5a   
 eigenvalues H        -20.53276    -1.32590    -0.76135    -0.51608    -0.49184
            eV        -558.7292    -36.0799    -20.7175    -14.0434    -13.3837
 occupation              2.0000      2.0000      2.0000      2.0000      2.0000 

    irrep                  6a          7a          8a          9a         10a   
 eigenvalues H          0.14308     0.19728     0.48852     0.63035     0.73458
            eV           3.8933      5.3683     13.2934     17.1529     19.9891
 
 
 
 
 ==============================================================================
                           electrostatic moments
 ==============================================================================

 reference point for electrostatic moments:    0.00000   0.00000   0.00000

 
              nuc           elec       ->  total
 ------------------------------------------------------------------------------
                          charge      
 ------------------------------------------------------------------------------
          10.000000     -10.000000       0.000000
 
 ------------------------------------------------------------------------------
                       dipole moment  
 ------------------------------------------------------------------------------
   x       2.476985      -2.916932      -0.439947
   y      -0.737399       0.868200       0.130801
   z      -1.488622       1.752839       0.264216
 
   | dipole moment | =     0.5296 a.u. =     1.3461 debye 
 
 ------------------------------------------------------------------------------
                     quadrupole moment
 ------------------------------------------------------------------------------
  xx       3.178665      -7.385773      -4.207108
  yy       2.273168      -6.410367      -4.137199
  zz       1.750584      -6.372154      -4.621570
  xy       1.829508      -0.548425       1.281083
  xz       1.059949      -0.040659       1.019290
  yz       1.915726      -0.870785       1.044941
 
     1/3  trace=      -4.321959
     anisotropy=       3.394367
 
 ==============================================================================
 

    dscf profiling
  --------------------------------------------------------------------
             module   cpu total (s)       %  wall total (s)       %

          dscf.total             4.6  100.00             1.2  100.00
        dscf.prepare             0.0    0.44             0.0    1.48
      prepare.oneint             0.0    0.04             0.0    0.16
     prepare.moinput             0.0    0.02             0.0    0.08
     prepare.orthmos             0.0    0.07             0.0    0.16
            dscf.scf             4.5   98.59             1.2   97.44
             scf.pre             0.0    0.13             0.0    0.08
        scf.makedmat             0.5   11.51             0.2   14.26
          scf.shlupf             3.4   74.54             0.9   70.07
         dscf.shloop             1.8   40.45             0.5   37.84
          scf.symcar             0.0    0.04             0.0    0.16
        scf.makefock             0.2    4.77             0.1    5.61
          scf.newerg             0.0    0.02             0.0    0.00
          scf.newcnv             0.0    0.24             0.0    0.16
           scf.fdiag             0.0    0.89             0.0    0.91
         diag_tritrn             0.0    0.08             0.0    0.08
          diag_rdiag             0.0    0.72             0.0    0.74
          scf.modump             0.2    5.21             0.1    4.78
           ortho_all             0.0    0.07             0.0    0.16
            scf.post             0.0    0.80             0.0    0.74
        dscf.postscf             0.0    0.96             0.0    1.07
 


    ------------------------------------------------------------------------
         total  cpu-time :   4.59 seconds
         total wall-time :   1.24 seconds
    ------------------------------------------------------------------------

   ****  dscf : all done  ****


    2025-12-07 23:10:02.740 

