[Molden Format]
made by pyscf v[2.11.0]
[Atoms] (AU)
O   1   8     0.00000000000000     0.00000000000000     0.00000000000000
H   2   1     1.86346082115973     0.00000000000000     0.00000000000000
H   3   1    -1.29931899146720     1.14697871993539     0.00000000000000
[GTO]
1 0
 s    1 1.00
          1517.8667506                   1
 s    1 1.00
          489.67952008                   1
 s    1 1.00
          176.72118665                   1
 s    1 1.00
           63.79223314                   1
 s    1 1.00
           25.36649913                   1
 s    1 1.00
            9.91354912                   1
 s    1 1.00
            4.46453066                   1
 s    1 1.00
            1.80177437                   1
 s    1 1.00
            0.80789711                   1
 s    1 1.00
            0.33864327                   1
 p    1 1.00
          120.16030921                   1
 p    1 1.00
           34.40962247                   1
 p    1 1.00
           12.58114861                   1
 p    1 1.00
            5.06638242                   1
 p    1 1.00
            2.03469271                   1
 p    1 1.00
            0.86092967                   1
 p    1 1.00
            0.36681357                   1
 d    1 1.00
           19.04306281                   1
 d    1 1.00
            5.80603811                   1
 d    1 1.00
            2.18918416                   1
 d    1 1.00
            0.87794614                   1
 d    1 1.00
            0.35623647                   1
 f    1 1.00
            2.49391479                   1
 f    1 1.00
            0.82491479                   1

2 0
 s    1 1.00
            9.53024933                   1
 s    1 1.00
            1.91745062                   1
 s    1 1.00
            0.68424049                   1
 s    1 1.00
            0.28413256                   1
 p    1 1.00
             2.9133232                   1
 p    1 1.00
            1.26212054                   1
 p    1 1.00
            0.50199776                   1
 d    1 1.00
            2.31353291                   1
 d    1 1.00
            0.71290724                   1

3 0
 s    1 1.00
            9.53024933                   1
 s    1 1.00
            1.91745062                   1
 s    1 1.00
            0.68424049                   1
 s    1 1.00
            0.28413256                   1
 p    1 1.00
             2.9133232                   1
 p    1 1.00
            1.26212054                   1
 p    1 1.00
            0.50199776                   1
 d    1 1.00
            2.31353291                   1
 d    1 1.00
            0.71290724                   1

[5d]
[7f]
[9g]

[MO]
 Sym= A
 Ene=               0
 Spin= Alpha
 Occup=   10.00020
   1      0.33159783901042
   2      0.67519001323712
   3       2.2527889291069
   4       3.7293235227025
   5       2.7041939085558
   6    -0.052279775360144
   7      0.08851988937514
   8      0.86742669128216
   9      0.74445913668381
  10      0.14191968006992
  11    0.0029245214471213
  12    0.0065084259994242
  13    4.5009438224356e-19
  14    0.0028681198670391
  15    0.0095693936371172
  16    1.3016158194681e-17
  17     0.013229154650557
  18       0.0296498132833
  19    6.6771859388258e-18
  20    -0.018284891614928
  21    -0.047042348170217
  22    -1.6150969996146e-17
  23    -0.013649978935573
  24    -0.023554738830236
  25    -2.1132301457713e-17
  26    -0.0051085332394827
  27    -0.0049939672656524
  28    5.7510388903727e-17
  29    0.0013418489172107
  30    0.0041827524799241
  31    -7.8177197036178e-17
  32     0.012195187071331
  33    4.828218368958e-17
  34    5.3318917701634e-18
  35    -0.0096277574766211
  36    0.0077349863715341
  37     0.043871739181058
  38    1.0755786414988e-16
  39    2.4765504501018e-17
  40    -0.037074366573798
  41     0.027471611001082
  42     0.024409629693931
  43    1.937201936917e-16
  44    -2.6187303227468e-17
  45    -0.015981182050582
  46    0.0090433145816821
  47    0.0083450943291606
  48    2.998026876794e-17
  49    -1.9348180869117e-17
  50    -0.0060119072859848
  51    0.0028461969451144
  52    0.0036044261741655
  53    -2.2360968538345e-17
  54    -3.8060182713918e-18
  55    -0.0026260197398466
  56    0.0026350923122987
  57    5.4112486061463e-17
  58    -0.0013034644889682
  59    -0.003900770286692
  60    -9.0762010249229e-18
  61    4.4187201054162e-17
  62     0.013434844173596
  63    0.0068978540940042
  64    1.5401359154548e-17
  65    -0.0016973555150256
  66    -0.0048265724538372
  67    7.1225189136594e-18
  68    2.7820049321551e-17
  69     0.016214843758247
  70    0.0088692787088196
  71     0.024493076621316
  72       0.1065117423633
  73     0.075402550154848
  74    -0.0075759734279783
  75    -0.016129605770208
  76    0.00057360417459588
  77    5.1247342862284e-18
  78    -0.034398507309676
  79    0.0055185371374863
  80    1.2075120999749e-17
  81    0.0086614736423087
  82    0.0023867412199989
  83    -1.1542122728385e-17
  84    -0.0058480938649642
  85    -1.5214974843326e-17
  86    5.7996141315143e-18
  87     0.010024566680723
  88    -0.0015806150643835
  89    0.0018056384611936
  90    8.4958674030771e-19
  91    3.0689776116652e-18
  92    -0.0037071109523176
  93    -0.0008619265837852
  94     0.028800441969114
  95      0.12046537087286
  96     0.065410725890766
  97    -0.010244610474119
  98     0.017721271267369
  99    -0.014407008517239
 100    -9.7806862156359e-18
 101     0.026552666736477
 102    -0.016342538232733
 103    1.4379449588254e-17
 104    -0.0077753995695704
 105    0.0093323666601664
 106    5.7358784877025e-18
 107    -0.0060771391805776
 108    -1.7436737583437e-17
 109    1.0752871666776e-17
 110    0.0030337694842703
 111    -0.0099218402279474
 112    0.0021843746606515
 113    4.3027096300232e-18
 114    -5.6213978113185e-18
 115    -0.00011854638840303
 116    0.0044340285843773
