34
PUZWAI.log	Energy: -589699.1677122
P          0.47694       -0.75330        0.00000
O          3.55970       -0.37152        0.00000
O          0.25613       -2.20937        0.00000
N         -0.93224        0.12520       -0.00000
C          1.53322       -0.11800        1.37163
H          0.98983        0.59640        1.99056
H          1.81432       -0.96780        1.99461
C          2.73949        0.51902        0.73630
H          3.27794        1.28320        1.28835
C          2.73949        0.51902       -0.73630
H          3.27794        1.28320       -1.28835
C          1.53322       -0.11800       -1.37163
H          1.81432       -0.96780       -1.99461
H          0.98983        0.59640       -1.99056
C         -2.26558       -0.50234       -0.00000
H         -2.97029        0.33174       -0.00000
C         -2.52915       -1.31160        1.26644
H         -2.36842       -0.69645        2.15388
H         -1.86570       -2.17460        1.31300
H         -3.56220       -1.66522        1.27812
C         -2.52915       -1.31160       -1.26644
H         -2.36842       -0.69645       -2.15388
H         -3.56220       -1.66522       -1.27812
H         -1.86570       -2.17460       -1.31300
C         -0.85449        1.58705       -0.00000
H          0.20987        1.84324        0.00000
C         -1.45773        2.20060       -1.26260
H         -0.99880        1.78062       -2.15834
H         -1.30697        3.28140       -1.27061
H         -2.53201        2.01583       -1.31874
C         -1.45773        2.20060        1.26260
H         -0.99880        1.78062        2.15834
H         -2.53201        2.01583        1.31874
H         -1.30697        3.28140        1.27061
